
Running Job 1 of 1 trnss_av.in
qchem trnss_av.in_9511.0 ./QC_SCR/temp/ 32
mpirun -f ./temphostfile -n 32 /global/home/groups-sw/nano/software/sl-7.x86_64/qchem/5.1.2/exe/qcprog.exe trnss_av.in_9511.0 ./QC_SCR/temp/

Process 31 of 32 is on n0147.vulcan0 - thread support 0
Process 0 of 32 is on n0144.vulcan0 - thread support 0
Process 1 of 32 is on n0144.vulcan0 - thread support 0
Process 2 of 32 is on n0144.vulcan0 - thread support 0
Process 3 of 32 is on n0144.vulcan0 - thread support 0
Process 4 of 32 is on n0144.vulcan0 - thread support 0
Process 5 of 32 is on n0144.vulcan0 - thread support 0
Process 6 of 32 is on n0144.vulcan0 - thread support 0
initial socket setup ...start
initial socket setup ...done 
now start server 0 ... 
Check license passed

                  Welcome to Q-Chem
     A Quantum Leap Into The Future Of Chemistry


 Q-Chem 5.1, Q-Chem, Inc., Pleasanton, CA (2018)

 Yihan Shao,  Zhengting Gan,  E. Epifanovsky,  A. T. B. Gilbert,  M. Wormit,  
 J. Kussmann,  A. W. Lange,  A. Behn,  Jia Deng,  Xintian Feng,  D. Ghosh,  
 M. Goldey,  P. R. Horn,  L. D. Jacobson,  I. Kaliman,  T. Kus,  A. Landau,  
 Jie Liu,  E. I. Proynov,  R. M. Richard,  R. P. Steele,  E. J. Sundstrom,  
 H. L. Woodcock III,  P. M. Zimmerman,  D. Zuev,  B. Albrecht,  E. Alguire,  
 S. A. Baeppler,  D. Barton,  Z. Benda,  Y. A. Bernard,  E. J. Berquist,  
 K. B. Bravaya,  H. Burton,  D. Casanova,  Chun-Min Chang,  Yunqing Chen,  
 A. Chien,  K. D. Closser,  M. P. Coons,  S. Coriani,  S. Dasgupta,  
 A. L. Dempwolff,  M. Diedenhofen,  Hainam Do,  R. G. Edgar,  Po-Tung Fang,  
 S. Faraji,  S. Fatehi,  Qingguo Feng,  K. D. Fenk,  J. Fosso-Tande,  
 J. Gayvert,  Qinghui Ge,  A. Ghysels,  G. Gidofalvi,  J. Gomes,  
 J. Gonthier,  A. Gunina,  D. Hait,  M. W. D. Hanson-Heine,  
 P. H. P. Harbach,  A. W. Hauser,  J. E. Herr,  E. G. Hohenstein,  
 Z. C. Holden,  Kerwin Hui,  B. C. Huynh,  T.-C. Jagau,  Hyunjun Ji,  
 B. Kaduk,  K. Khistyaev,  Jaehoon Kim,  P. Klunzinger,  K. Koh,  
 D. Kosenkov,  L. Koulias,  T. Kowalczyk,  C. M. Krauter,  A. Kunitsa,  
 Ka Un Lao,  A. Laurent,  K. V. Lawler,  Joonho Lee,  D. Lefrancois,  
 S. Lehtola,  D. S. Levine,  Yi-Pei Li,  You-Sheng Lin,  Fenglai Liu,  
 E. Livshits,  A. Luenser,  P. Manohar,  E. Mansoor,  S. F. Manzer,  
 Shan-Ping Mao,  Yuezhi Mao,  N. Mardirossian,  A. V. Marenich,  
 T. Markovich,  L. A. Martinez-Martinez,  S. A. Maurer,  N. J. Mayhall,  
 S. C. McKenzie,  J.-M. Mewes,  A. F. Morrison,  J. W. Mullinax,  K. Nanda,  
 T. S. Nguyen-Beck,  R. Olivares-Amaya,  J. A. Parkhill,  T. M. Perrine,  
 F. Plasser,  P. Pokhilko,  S. Prager,  A. Prociuk,  E. Ramos,  D. R. Rehn,  
 F. Rob,  M. Schneider,  N. Sergueev,  S. M. Sharada,  S. Sharma,  
 D. W. Small,  T. Stauch,  T. Stein,  Yu-Chuan Su,  A. J. W. Thom,  
 A. Tkatchenko,  T. Tsuchimochi,  N. M. Tubman,  L. Vogt,  M. L. Vidal,  
 O. Vydrov,  M. A. Watson,  J. Wenzel,  M. de Wergifosse,  T. A. Wesolowski,  
 A. White,  J. Witte,  A. Yamada,  Jun Yang,  K. Yao,  S. Yeganeh,  
 S. R. Yost,  Zhi-Qiang You,  A. Zech,  Igor Ying Zhang,  Xing Zhang,  
 Yan Zhao,  Ying Zhu,  B. R. Brooks,  G. K. L. Chan,  C. J. Cramer,  
 M. S. Gordon,  W. J. Hehre,  A. Klamt,  M. W. Schmidt,  C. D. Sherrill,  
 D. G. Truhlar,  A. Aspuru-Guzik,  R. Baer,  A. T. Bell,  N. A. Besley,  
 Jeng-Da Chai,  A. E. DePrince, III,  R. A. DiStasio Jr.,  A. Dreuw,  
 B. D. Dunietz,  T. R. Furlani,  Chao-Ping Hsu,  Yousung Jung,  Jing Kong,  
 D. S. Lambrecht,  WanZhen Liang,  C. Ochsenfeld,  V. A. Rassolov,  
 L. V. Slipchenko,  J. E. Subotnik,  T. Van Voorhis,  J. M. Herbert,  
 A. I. Krylov,  P. M. W. Gill,  M. Head-Gordon

 Contributors to earlier versions of Q-Chem not listed above: 
 R. D. Adamson,  B. Austin,  J. Baker,  G. J. O. Beran,  K. Brandhorst,  
 S. T. Brown,  E. F. C. Byrd,  A. K. Chakraborty,  C.-L. Cheng,  
 Siu Hung Chien,  D. M. Chipman,  D. L. Crittenden,  H. Dachsel,  
 R. J. Doerksen,  A. D. Dutoi,  L. Fusti-Molnar,  W. A. Goddard III,  
 A. Golubeva-Zadorozhnaya,  S. R. Gwaltney,  G. Hawkins,  A. Heyden,  
 S. Hirata,  G. Kedziora,  F. J. Keil,  C. Kelley,  Jihan Kim,  R. A. King,  
 R. Z. Khaliullin,  P. P. Korambath,  W. Kurlancheek,  A. M. Lee,  M. S. Lee,  
 S. V. Levchenko,  Ching Yeh Lin,  D. Liotard,  R. C. Lochan,  I. Lotan,  
 P. E. Maslen,  N. Nair,  D. P. O'Neill,  D. Neuhauser,  E. Neuscamman,  
 C. M. Oana,  R. Olson,  B. Peters,  R. Peverati,  P. A. Pieniazek,  
 Y. M. Rhee,  J. Ritchie,  M. A. Rohrdanz,  E. Rosta,  N. J. Russ,  
 H. F. Schaefer III,  N. E. Schultz,  N. Shenvi,  A. C. Simmonett,  A. Sodt,  
 D. Stuck,  K. S. Thanthiriwatte,  V. Vanovschi,  Tao Wang,  A. Warshel,  
 C. F. Williams,  Q. Wu,  X. Xu,  W. Zhang

 Please cite Q-Chem as follows:
 Y. Shao et al., Mol. Phys. 113, 184-215 (2015)
 DOI: 10.1080/00268976.2014.952696

 Q-Chem 5.1.2 for Intel X86 EM64T Linux

 Parts of Q-Chem use Armadillo 8.300.2 (Tropical Shenanigans).
 http://arma.sourceforge.net/

 Q-Chem begins on Fri Jan 17 17:21:47 2020  

Host: 
0

     Scratch files written to ./QC_SCR/temp.0//
 Dec218 |scratch|qcdevops|jenkins|workspace|build_RNUM 6439   
 Parallel job on  32  processors
Processing $rem in /global/home/groups-sw/nano/software/sl-7.x86_64/qchem/5.1.2/config/preferences.
 MEM_TOTAL  2000 
Input Ideriv = 0
Curr. Ideriv = -1
Max.  Ideriv = 0

Checking the input file for inconsistencies... 	...done.

--------------------------------------------------------------
User input:
--------------------------------------------------------------
$molecule
0 1
C	-6.2167958009	-0.5388526622	0.7386775327
C	-5.2171170882	-0.1773489771	-0.3488024981
C	-3.7741764932	-0.1492434056	0.1383580386
C	-2.7660654353	0.1943646744	-0.9592468204
C	-1.3378929536	0.2051316272	-0.4819020695
C	-0.6539402853	-0.9930630567	-0.2367111294
H	-1.1573011121	-1.9471011004	-0.4222078838
C	0.6539510312	-0.9930675911	0.2366625879
H	1.1573201536	-1.9471092973	0.4221179373
C	1.3378930057	0.2051226024	0.4819057351
C	0.6568536380	1.4002534744	0.2343824675
H	1.1625127451	2.3536925602	0.4153484716
C	-0.6568641563	1.4002578863	-0.2343272791
H	-1.1625316289	2.3537003375	-0.4152521956
H	-7.2485430330	-0.5482472323	0.3550254958
H	-6.1795060363	0.1804271245	1.5728998992
H	-6.0093525589	-1.5369227483	1.1574323892
H	-5.4751340057	0.8076404488	-0.7771644368
H	-5.3022490047	-0.8956609681	-1.1839423414
H	-3.5135028166	-1.1298624598	0.5753372077
H	-3.6736402711	0.5791922949	0.9626298023
H	-3.0167709582	1.1792712233	-1.3874958061
H	-2.8706538003	-0.5341831062	-1.7825823586
H	3.0167664644	1.1792463318	1.3875236332
C	2.7660643608	0.1943479469	0.9592538939
H	2.8706511656	-0.5342159221	1.7825755635
C	3.7741803035	-0.1492370603	-0.1383535367
C	5.2171189225	-0.1773475955	0.3488125726
C	6.2168031934	-0.5388340044	-0.7386679911
H	3.6736453905	0.5792132728	-0.9626125237
H	3.5135115699	-1.1298490814	-0.5753514935
H	5.3022481112	-0.8956715957	1.1839423918
H	5.4751324883	0.8076359613	0.7771900123
H	6.0093639117	-1.5368985513	-1.1574380735
H	7.2485486273	-0.5482322407	-0.3550111847
H	6.1795163021	0.1804574936	-1.5728804116
$end
$rem
METHOD 		SRC1-R1
BASIS		def2-SVP
CIS_N_ROOTS	200
CIS_TRIPLETS 	FALSE
TRNSS 		TRUE
TRTYPE		3
! Active sapce configuration.
! There are 14 carbons
N_SOL		14
! There are 253 virtual orbitals in total
$end
$solute
1
2
3
4
5
6
7
8
9
10
11
12
13
14
$end
--------------------------------------------------------------
 ----------------------------------------------------------------
             Standard Nuclear Orientation (Angstroms)
    I     Atom           X                Y                Z
 ----------------------------------------------------------------
    1      C      -6.2188688025    -0.5040303914     0.7210392750
    2      C      -5.2161069484    -0.1425605675    -0.3636097423
    3      C      -3.7745550676    -0.1144403057     0.1276440602
    4      C      -2.7633321669     0.2291335980    -0.9671052544
    5      C      -1.3365204816     0.2399149415    -0.4857085848
    6      C      -0.6532670047    -0.9582723374    -0.2385400573
    7      H      -1.1560995560    -1.9123159859    -0.4254354790
    8      C       0.6532752689    -0.9582625734     0.2385444836
    9      H       1.1561155831    -1.9122986751     0.4254574906
   10      C       1.3365187206     0.2399350256     0.4856911306
   11      C       0.6561851523     1.4350584198     0.2361986497
   12      H       1.1613288360     2.3885029698     0.4185698820
   13      C      -0.6561968153     1.4350486789    -0.2362384790
   14      H      -1.1613483313     2.3884856662    -0.4186275773
   15      H      -7.2495228018    -0.5134365570     0.3344602379
   16      H      -6.1839470627     0.2152751667     1.5553419065
   17      H      -6.0126154622    -1.5020875881     1.1404121604
   18      H      -5.4729064930     0.8424156849    -0.7927328311
   19      H      -5.2988680425    -0.8608983462    -1.1989656870
   20      H      -3.5151232349    -1.0950459208     0.5653917515
   21      H      -3.6763588751     0.6140208427     0.9521753848
   22      H      -3.0128206671     1.2140269751    -1.3960946332
   23      H      -2.8655831437    -0.4994396005    -1.7907118566
   24      H       3.0128149556     1.2140863173     1.3960411190
   25      C       2.7633292622     0.2291747608     0.9670918705
   26      H       2.8655782216    -0.4993636899     1.7907296299
   27      C       3.7745568209    -0.1144444223    -0.1276387650
   28      C       5.2161066906    -0.1425402671     0.3636223417
   29      C       6.2188738581    -0.5040605368    -0.7210048496
   30      H       3.6763623977     0.6139804626    -0.9522023323
   31      H       3.5151293161    -1.0950698822    -0.5653446207
   32      H       5.2988645958    -0.8608384792     1.1990126520
   33      H       5.4729035110     0.8424564628     0.7927000427
   34      H       6.0126238410    -1.5021379726    -1.1403312617
   35      H       7.2495260393    -0.5134471775    -0.3344204673
   36      H       6.1839554536     0.2152051894    -1.5553419842
 ----------------------------------------------------------------
 Molecular Point Group                 C1    NOp =  1
 Largest Abelian Subgroup              C1    NOp =  1
 Nuclear Repulsion Energy =   825.6573823901 hartrees
 There are       53 alpha and       53 beta electrons
 Requested basis set is def2-SVP
 There are 150 shells and 306 basis functions

 Total QAlloc Memory Limit   2000 MB
 Mega-Array Size       188 MB
 MEM_STATIC part       192 MB
 A cutoff of  1.0D-11 yielded   7591 shell pairs
 There are     30051 function pairs (     32702 Cartesian)
 
 -------------------------------------------------------
 OpenMP Integral Computing Module                       
 Release: version 1.0, May 2013, Q-Chem Inc. Pittsburgh 
 -------------------------------------------------------
 Integral Job Info:
 Integral job number is                      11
 Integral operator is                         1
 short-range coefficients              50000000
 long-range coefficients               17000000
 Omega coefficients                         560
 if combine SR and LR in K                    0
 Integral screening is                        0
 Integral computing path is                   2
 max size of driver memory is            800000
 size of driver memory is                593474
 size of scratch memory is              1809772
 max col of scratch BK array               1296
 max len of scratch array in speh3          155
 max len of scratch index in speh4           18
 max int batch size is                      520
 min int batch size is                       52
 fixed nKL is                                52
 max L of basis functions is                  2
 order of int derivative is                   0
 number of shells is                        150
 number of basis is                         320
 number of cartesian basis is               320
 number of contracted shell pairs          7591
 number of primitive shell pairs          17967
 maxK2 (contraction) of shell pair           25
 max number of K2 of shell pair               1
 max number of CS2 of shell pair           1544
 max number of PS2 of shell pair           2970
 mem total for path MDJ                  570876
 -------------------------------------------------------
 Smallest overlap matrix eigenvalue = 2.61E-04

 Scale SEOQF with 1.000000e-02/1.000000e-01/1.000000e-01

 Standard Electronic Orientation quadrupole field applied
 Nucleus-field energy     =     0.0000000056 hartrees
 Guess from superposition of atomic densities
 Warning:  Energy on first SCF cycle will be non-variational
 SAD guess density has 106.000000 electrons

 -----------------------------------------------------------------------
  General SCF calculation program by
  Eric Jon Sundstrom, Paul Horn, Yuezhi Mao, Dmitri Zuev, Alec White,
  David Stuck, Shaama M.S., Shane Yost, Joonho Lee, David Small,
  Daniel Levine, Susi Lehtola, Hugh Burton, Evgeny Epifanovsky
 -----------------------------------------------------------------------
 Exchange:     Short-Range Corrected Functional
 Correlation:  0.1900 VWN5 + 0.8100 LYP
 Using SG-1 standard quadrature grid
 using 4 threads for integral computing
 -------------------------------------------------------
 OpenMP Integral computing Module                
 Release: version 1.0, May 2013, Q-Chem Inc. Pittsburgh 
 -------------------------------------------------------
 using 4 threads for integral computing
 -------------------------------------------------------
 OpenMP Integral computing Module                
 Release: version 1.0, May 2013, Q-Chem Inc. Pittsburgh 
 -------------------------------------------------------
 using 4 threads for integral computing
 -------------------------------------------------------
 OpenMP Integral computing Module                
 Release: version 1.0, May 2013, Q-Chem Inc. Pittsburgh 
 -------------------------------------------------------
 -------------------------------------------------------
 OpenMP BLAS3 based DFT computing Module                
 -------------------------------------------------------
 A restricted SCF calculation will be
 performed using DIIS
 SCF converges when DIIS error is below 1.0e-08
 ---------------------------------------
  Cycle       Energy         DIIS error
 ---------------------------------------
    1    -550.1086333573      4.33e-02  
    2    -546.9392511798      4.37e-03  
    3    -546.9542982784      4.35e-03  
    4    -547.2084781265      2.92e-04  
    5    -547.2091386204      1.80e-04  
    6    -547.2095256471      4.26e-05  
    7    -547.2095434448      2.00e-05  
    8    -547.2095489283      2.78e-06  
    9    -547.2095490207      1.09e-06  
   10    -547.2095490350      1.73e-07  
   11    -547.2095490354      6.38e-08  
   12    -547.2095490354      1.30e-08  
   13    -547.2095490354      2.72e-09  Convergence criterion met
 ---------------------------------------
 SCF time:   CPU 60.87s  wall 64.00s 
 SCF   energy in the final basis set =     -547.2095490354
 Total energy in the final basis set =     -547.2095490354
 
 Direct TDDFT/TDA calculation will be performed
 Exchange:     Short-Range Corrected Functional
 Correlation:  0.1900 VWN5 + 0.8100 LYP
 Using SG-1 standard quadrature grid
 Singlet excitation energies requested
 CIS energy converged when residual is below 10e- 6

 Q-Chem warning in module 0, line   33, PE  0:

 TrnSS=1 + dyn memory is not fully tested

   
 ***Using a Restricted Set of Single Excitations***
   
 RCIS calculation
   
 Excitations from specified occupied orbitals
 -------------------------------------------------------------
              Orbitals in Truncated CIS space
 -------------------------------------------------------------
     1   2   3   4   5   6   7   8   9  10  11  12  13  14  54
    55  56  57  58  59  60  61  62  63  64  65  66  67  68  69
    70  71  72  73  74  75  76  77  78  79  80  81  82  83  84
    85  86  87  88  89  90  91  92  93  94  95  96  97  98  99
   100 101 102 103 104 105 106 107 108 109 110 111 112 113 114
   115 116 117 118 119 120 121 122 123 124 125 126 127 128 129
   130 131 132 133 134 135 136 137 138 139 140 141 142 143 144
   145 146 147 148 149 150 151 152 153 154 155 156 157 158 159
   160 161 162 163 164 165 166 167 168 169 170 171 172 173 174
   175 176 177 178 179 180 181 182 183 184 185 186 187 188 189
   190 191 192 193 194 195 196 197 198 199 200 201 202 203 204
   205 206 207 208 209 210 211 212 213 214 215 216 217 218 219
   220 221 222 223 224 225 226 227 228 229 230 231 232 233 234
   235 236 237 238 239 240 241 242 243 244 245 246 247 248 249
   250 251 252 253 254 255 256 257 258 259 260 261 262 263 264
   265 266 267 268 269 270 271 272 273 274 275 276 277 278 279
   280 281 282 283 284 285 286 287 288 289 290 291 292 293 294
   295 296 297 298 299 300 301 302 303 304 305 306
   
    Number of Occupied Orbitals= 14  out of  53
    Number of Virtual Orbitals =253  out of 253
 -------------------------------------------------------------
 Number of Roots adjusted to:         200
 ---------------------------------------------------
 Iter    Rts Conv    Rts Left    Ttl Dev     Max Dev
 ---------------------------------------------------
   1         0         200      0.032584    0.000663
   2         0         200      0.020324    0.000333
   3         0         200      0.018123    0.000333
   4        32         168      0.018019    0.000333
   5       184          16      0.018018    0.000333
   6       200           0      0.018018    0.000333    Roots Converged
 ---------------------------------------------------
 
 ---------------------------------------------------
         TDDFT/TDA Excitation Energies              
 ---------------------------------------------------

 Excited state   1: excitation energy (eV) =  285.8480
 Total energy for state  1:                  -536.70482727 au
    Multiplicity: Singlet
    Trans. Mom.:  0.0000 X  -0.0018 Y  -0.0000 Z
    Strength   :     0.0000216531
    D(  5) --> V(  1) amplitude =  0.8195
    D(  7) --> V(  2) amplitude =  0.4098

 Excited state   2: excitation energy (eV) =  285.8594
 Total energy for state  2:                  -536.70440948 au
    Multiplicity: Singlet
    Trans. Mom.:  0.0336 X  -0.0000 Y  -0.0899 Z
    Strength   :     0.0644908004
    D(  1) --> V(  2) amplitude =  0.2127
    D(  5) --> V(  2) amplitude =  0.3860
    D(  7) --> V(  1) amplitude =  0.8255

 Excited state   3: excitation energy (eV) =  285.8761
 Total energy for state  3:                  -536.70379409 au
    Multiplicity: Singlet
    Trans. Mom.: -0.0000 X   0.0009 Y   0.0000 Z
    Strength   :     0.0000057646
    D(  6) --> V(  1) amplitude =  0.7866
    D(  8) --> V(  2) amplitude = -0.4336

 Excited state   4: excitation energy (eV) =  285.8873
 Total energy for state  4:                  -536.70338537 au
    Multiplicity: Singlet
    Trans. Mom.:  0.0237 X  -0.0000 Y  -0.0643 Z
    Strength   :     0.0328626151
    D(  1) --> V(  2) amplitude =  0.3788
    D(  6) --> V(  2) amplitude = -0.3653
    D(  8) --> V(  1) amplitude =  0.7588

 Excited state   5: excitation energy (eV) =  285.9112
 Total energy for state  5:                  -536.70250553 au
    Multiplicity: Singlet
    Trans. Mom.: -0.0000 X  -0.0005 Y   0.0000 Z
    Strength   :     0.0000018460
    D(  2) --> V(  2) amplitude =  0.8935

 Excited state   6: excitation energy (eV) =  285.9188
 Total energy for state  6:                  -536.70222508 au
    Multiplicity: Singlet
    Trans. Mom.: -0.0643 X   0.0000 Y   0.1826 Z
    Strength   :     0.2625602334
    D(  1) --> V(  2) amplitude =  0.8080
    D(  6) --> V(  2) amplitude =  0.2778
    D(  8) --> V(  1) amplitude = -0.2926

 Excited state   7: excitation energy (eV) =  287.9806
 Total energy for state  7:                  -536.62645666 au
    Multiplicity: Singlet
    Trans. Mom.: -0.0000 X  -0.0023 Y   0.0000 Z
    Strength   :     0.0000368355
    D(  6) --> V(  1) amplitude =  0.4966
    D(  8) --> V(  2) amplitude =  0.8521

 Excited state   8: excitation energy (eV) =  287.9908
 Total energy for state  8:                  -536.62608314 au
    Multiplicity: Singlet
    Trans. Mom.: -0.0019 X   0.0000 Y   0.0017 Z
    Strength   :     0.0000456269
    D(  6) --> V(  2) amplitude =  0.8371
    D(  8) --> V(  1) amplitude =  0.4896

 Excited state   9: excitation energy (eV) =  287.9997
 Total energy for state  9:                  -536.62575402 au
    Multiplicity: Singlet
    Trans. Mom.: -0.0000 X  -0.0011 Y   0.0000 Z
    Strength   :     0.0000090723
    D(  1) --> V(  1) amplitude =  0.2131
    D(  5) --> V(  1) amplitude = -0.4595
    D(  7) --> V(  2) amplitude =  0.8460

 Excited state  10: excitation energy (eV) =  288.0098
 Total energy for state 10:                  -536.62538326 au
    Multiplicity: Singlet
    Trans. Mom.:  0.0023 X  -0.0000 Y  -0.0028 Z
    Strength   :     0.0000939814
    D(  2) --> V(  1) amplitude = -0.5440
    D(  5) --> V(  2) amplitude =  0.6884
    D(  6) --> V(  2) amplitude = -0.2180
    D(  7) --> V(  1) amplitude = -0.4096

 Excited state  11: excitation energy (eV) =  288.0162
 Total energy for state 11:                  -536.62514689 au
    Multiplicity: Singlet
    Trans. Mom.: -0.0000 X   0.0006 Y  -0.0000 Z
    Strength   :     0.0000024729
    D(  1) --> V(  1) amplitude =  0.9596
    D(  7) --> V(  2) amplitude = -0.2435

 Excited state  12: excitation energy (eV) =  288.0186
 Total energy for state 12:                  -536.62506007 au
    Multiplicity: Singlet
    Trans. Mom.:  0.0001 X  -0.0000 Y  -0.0013 Z
    Strength   :     0.0000117914
    D(  2) --> V(  1) amplitude =  0.8149
    D(  5) --> V(  2) amplitude =  0.5360

 Excited state  13: excitation energy (eV) =  288.2683
 Total energy for state 13:                  -536.61588520 au
    Multiplicity: Singlet
    Trans. Mom.:  0.0051 X  -0.0000 Y   0.0266 Z
    Strength   :     0.0051718702
    D(  4) --> V(  2) amplitude =  0.9494

 Excited state  14: excitation energy (eV) =  288.2687
 Total energy for state 14:                  -536.61586953 au
    Multiplicity: Singlet
    Trans. Mom.: -0.0000 X  -0.0037 Y  -0.0001 Z
    Strength   :     0.0000984093
    D(  3) --> V(  2) amplitude =  0.9492

 Excited state  15: excitation energy (eV) =  288.3330
 Total energy for state 15:                  -536.61350617 au
    Multiplicity: Singlet
    Trans. Mom.: -0.0256 X   0.0008 Y   0.0358 Z
    Strength   :     0.0136876779
    D( 12) --> V(  2) amplitude =  0.9323

 Excited state  16: excitation energy (eV) =  288.3330
 Total energy for state 16:                  -536.61350477 au
    Multiplicity: Singlet
    Trans. Mom.:  0.0008 X   0.0248 Y  -0.0012 Z
    Strength   :     0.0043530589
    D( 11) --> V(  2) amplitude =  0.9322

 Excited state  17: excitation energy (eV) =  288.4861
 Total energy for state 17:                  -536.60787881 au
    Multiplicity: Singlet
    Trans. Mom.:  0.0000 X  -0.0270 Y  -0.0001 Z
    Strength   :     0.0051351841
    D(  4) --> V(  1) amplitude =  0.9546

 Excited state  18: excitation energy (eV) =  288.4866
 Total energy for state 18:                  -536.60786283 au
    Multiplicity: Singlet
    Trans. Mom.: -0.0022 X  -0.0001 Y   0.0111 Z
    Strength   :     0.0009079126
    D(  3) --> V(  1) amplitude =  0.9542

 Excited state  19: excitation energy (eV) =  288.5157
 Total energy for state 19:                  -536.60679139 au
    Multiplicity: Singlet
    Trans. Mom.: -0.0005 X   0.0254 Y   0.0005 Z
    Strength   :     0.0045499992
    D( 11) --> V(  2) amplitude = -0.2267
    D( 12) --> V(  1) amplitude =  0.9268

 Excited state  20: excitation energy (eV) =  288.5158
 Total energy for state 20:                  -536.60678986 au
    Multiplicity: Singlet
    Trans. Mom.:  0.0086 X   0.0014 Y  -0.0081 Z
    Strength   :     0.0010074821
    D( 11) --> V(  1) amplitude =  0.9261
    D( 12) --> V(  2) amplitude = -0.2265

 Excited state  21: excitation energy (eV) =  288.6109
 Total energy for state 21:                  -536.60329239 au
    Multiplicity: Singlet
    Trans. Mom.: -0.0251 X   0.0013 Y  -0.0436 Z
    Strength   :     0.0179020676
    D( 10) --> V(  2) amplitude =  0.8608
    D( 10) --> V(  4) amplitude = -0.2448

 Excited state  22: excitation energy (eV) =  288.6109
 Total energy for state 22:                  -536.60329236 au
    Multiplicity: Singlet
    Trans. Mom.: -0.0102 X  -0.0033 Y  -0.0176 Z
    Strength   :     0.0030030934
    D(  9) --> V(  2) amplitude =  0.8607
    D(  9) --> V(  4) amplitude = -0.2448

 Excited state  23: excitation energy (eV) =  288.7467
 Total energy for state 23:                  -536.59830344 au
    Multiplicity: Singlet
    Trans. Mom.:  0.0030 X  -0.0046 Y  -0.0003 Z
    Strength   :     0.0002138578
    D(  9) --> V(  1) amplitude =  0.3422
    D( 10) --> V(  1) amplitude =  0.2919
    D( 13) --> V(  1) amplitude = -0.2129
    D( 14) --> V(  1) amplitude =  0.8436

 Excited state  24: excitation energy (eV) =  288.7467
 Total energy for state 24:                  -536.59830331 au
    Multiplicity: Singlet
    Trans. Mom.:  0.0047 X   0.0029 Y  -0.0004 Z
    Strength   :     0.0002208488
    D(  9) --> V(  1) amplitude =  0.2918
    D( 10) --> V(  1) amplitude = -0.3426
    D( 13) --> V(  1) amplitude =  0.8434
    D( 14) --> V(  1) amplitude =  0.2130

 Excited state  25: excitation energy (eV) =  288.7553
 Total energy for state 25:                  -536.59798633 au
    Multiplicity: Singlet
    Trans. Mom.: -0.0008 X  -0.0045 Y  -0.0008 Z
    Strength   :     0.0001508527
    D( 10) --> V(  1) amplitude =  0.8526
    D( 13) --> V(  1) amplitude =  0.4243

 Excited state  26: excitation energy (eV) =  288.7553
 Total energy for state 26:                  -536.59798633 au
    Multiplicity: Singlet
    Trans. Mom.:  0.0015 X  -0.0024 Y   0.0015 Z
    Strength   :     0.0000731874
    D(  9) --> V(  1) amplitude =  0.8528
    D( 14) --> V(  1) amplitude = -0.4240

 Excited state  27: excitation energy (eV) =  288.7861
 Total energy for state 27:                  -536.59685433 au
    Multiplicity: Singlet
    Trans. Mom.: -0.0048 X  -0.0006 Y  -0.0035 Z
    Strength   :     0.0002531007
    D( 13) --> V(  1) amplitude =  0.2126
    D( 13) --> V(  2) amplitude =  0.9571

 Excited state  28: excitation energy (eV) =  288.7861
 Total energy for state 28:                  -536.59685429 au
    Multiplicity: Singlet
    Trans. Mom.:  0.0057 X  -0.0005 Y   0.0042 Z
    Strength   :     0.0003616597
    D( 14) --> V(  1) amplitude = -0.2127
    D( 14) --> V(  2) amplitude =  0.9571

 Excited state  29: excitation energy (eV) =  288.9963
 Total energy for state 29:                  -536.58913126 au
    Multiplicity: Singlet
    Trans. Mom.: -0.0361 X   0.0044 Y   0.0480 Z
    Strength   :     0.0257084915
    D( 13) --> V(  3) amplitude = -0.2420
    D( 13) --> V(  4) amplitude = -0.3116
    D( 14) --> V(  3) amplitude = -0.4486
    D( 14) --> V(  4) amplitude =  0.5053
    D( 14) --> V(  5) amplitude = -0.3709
    D( 14) --> V(  7) amplitude = -0.2777

 Excited state  30: excitation energy (eV) =  288.9963
 Total energy for state 30:                  -536.58913110 au
    Multiplicity: Singlet
    Trans. Mom.:  0.0097 X   0.0166 Y  -0.0129 Z
    Strength   :     0.0037863913
    D( 13) --> V(  3) amplitude =  0.4486
    D( 13) --> V(  4) amplitude =  0.5053
    D( 13) --> V(  5) amplitude =  0.3709
    D( 13) --> V(  7) amplitude = -0.2777
    D( 14) --> V(  3) amplitude = -0.2420
    D( 14) --> V(  4) amplitude =  0.3116

 Excited state  31: excitation energy (eV) =  289.0772
 Total energy for state 31:                  -536.58615704 au
    Multiplicity: Singlet
    Trans. Mom.:  0.0016 X   0.0187 Y   0.0043 Z
    Strength   :     0.0026288397
    D( 11) --> V(  4) amplitude =  0.5848
    D( 11) --> V( 10) amplitude = -0.2845
    D( 12) --> V(  3) amplitude = -0.5585
    D( 12) --> V( 11) amplitude = -0.2666

 Excited state  32: excitation energy (eV) =  289.0772
 Total energy for state 32:                  -536.58615577 au
    Multiplicity: Singlet
    Trans. Mom.:  0.0269 X  -0.0011 Y   0.0725 Z
    Strength   :     0.0423425943
    D( 11) --> V(  3) amplitude = -0.5584
    D( 11) --> V( 11) amplitude = -0.2665
    D( 12) --> V(  4) amplitude =  0.5848
    D( 12) --> V( 10) amplitude = -0.2845

 Excited state  33: excitation energy (eV) =  289.1064
 Total energy for state 33:                  -536.58508412 au
    Multiplicity: Singlet
    Trans. Mom.: -0.0003 X   0.0159 Y  -0.0018 Z
    Strength   :     0.0018196305
    D(  9) --> V(  2) amplitude =  0.4176
    D(  9) --> V(  4) amplitude =  0.5212
    D( 10) --> V(  3) amplitude = -0.5048

 Excited state  34: excitation energy (eV) =  289.1064
 Total energy for state 34:                  -536.58508387 au
    Multiplicity: Singlet
    Trans. Mom.:  0.0074 X   0.0006 Y   0.0510 Z
    Strength   :     0.0188292338
    D(  9) --> V(  3) amplitude = -0.5048
    D( 10) --> V(  2) amplitude =  0.4176
    D( 10) --> V(  4) amplitude =  0.5211

 Excited state  35: excitation energy (eV) =  289.1685
 Total energy for state 35:                  -536.58280171 au
    Multiplicity: Singlet
    Trans. Mom.:  0.0399 X   0.0000 Y   0.0220 Z
    Strength   :     0.0147266928
    D(  7) --> V(  3) amplitude =  0.5345
    D(  7) --> V(  5) amplitude = -0.3632
    D(  7) --> V(  6) amplitude = -0.5038
    D(  7) --> V( 12) amplitude =  0.2952

 Excited state  36: excitation energy (eV) =  289.1730
 Total energy for state 36:                  -536.58263590 au
    Multiplicity: Singlet
    Trans. Mom.:  0.0004 X   0.0362 Y   0.0010 Z
    Strength   :     0.0093008889
    D(  3) --> V(  4) amplitude = -0.4342
    D(  3) --> V(  7) amplitude = -0.3973
    D(  4) --> V(  3) amplitude =  0.5717
    D(  4) --> V(  5) amplitude = -0.3078

 Excited state  37: excitation energy (eV) =  289.1731
 Total energy for state 37:                  -536.58263427 au
    Multiplicity: Singlet
    Trans. Mom.:  0.0262 X  -0.0005 Y   0.0667 Z
    Strength   :     0.0364220665
    D(  3) --> V(  3) amplitude =  0.5703
    D(  3) --> V(  5) amplitude = -0.3072
    D(  4) --> V(  4) amplitude = -0.4328
    D(  4) --> V(  7) amplitude = -0.3960

 Excited state  38: excitation energy (eV) =  289.1845
 Total energy for state 38:                  -536.58221242 au
    Multiplicity: Singlet
    Trans. Mom.:  0.0406 X  -0.0000 Y   0.0160 Z
    Strength   :     0.0134797895
    D(  8) --> V(  3) amplitude = -0.4410
    D(  8) --> V(  5) amplitude =  0.5543
    D(  8) --> V(  6) amplitude = -0.3750
    D(  8) --> V(  9) amplitude =  0.2446
    D(  8) --> V( 11) amplitude =  0.2507

 Excited state  39: excitation energy (eV) =  289.1962
 Total energy for state 39:                  -536.58178565 au
    Multiplicity: Singlet
    Trans. Mom.: -0.0000 X  -0.0895 Y   0.0000 Z
    Strength   :     0.0568168110
    D(  5) --> V(  3) amplitude =  0.5312
    D(  5) --> V(  5) amplitude = -0.3687
    D(  5) --> V(  6) amplitude = -0.4746
    D(  5) --> V( 12) amplitude =  0.2787

 Excited state  40: excitation energy (eV) =  289.2135
 Total energy for state 40:                  -536.58114788 au
    Multiplicity: Singlet
    Trans. Mom.: -0.0000 X   0.0615 Y  -0.0000 Z
    Strength   :     0.0268030225
    D(  6) --> V(  3) amplitude = -0.4426
    D(  6) --> V(  5) amplitude =  0.5449
    D(  6) --> V(  6) amplitude = -0.3449
    D(  6) --> V(  9) amplitude =  0.2408
    D(  6) --> V( 11) amplitude =  0.2397

 Excited state  41: excitation energy (eV) =  289.3821
 Total energy for state 41:                  -536.57495077 au
    Multiplicity: Singlet
    Trans. Mom.:  0.0095 X  -0.0014 Y  -0.0194 Z
    Strength   :     0.0033163839
    D(  9) --> V(  6) amplitude = -0.4155
    D(  9) --> V( 12) amplitude = -0.2824
    D(  9) --> V( 22) amplitude =  0.2502
    D( 10) --> V(  8) amplitude =  0.5068
    D( 10) --> V( 18) amplitude =  0.2157
    D( 10) --> V( 20) amplitude =  0.2206

 Excited state  42: excitation energy (eV) =  289.3822
 Total energy for state 42:                  -536.57494996 au
    Multiplicity: Singlet
    Trans. Mom.:  0.0002 X   0.0841 Y  -0.0003 Z
    Strength   :     0.0501879773
    D(  9) --> V(  8) amplitude =  0.5067
    D(  9) --> V( 18) amplitude =  0.2157
    D(  9) --> V( 20) amplitude =  0.2205
    D( 10) --> V(  6) amplitude = -0.4155
    D( 10) --> V( 12) amplitude = -0.2823
    D( 10) --> V( 22) amplitude =  0.2502

 Excited state  43: excitation energy (eV) =  289.4594
 Total energy for state 43:                  -536.57211164 au
    Multiplicity: Singlet
    Trans. Mom.: -0.0075 X  -0.0178 Y   0.0170 Z
    Strength   :     0.0046936618
    D( 11) --> V(  6) amplitude = -0.4705
    D( 11) --> V( 24) amplitude = -0.2125
    D( 12) --> V(  8) amplitude =  0.4905

 Excited state  44: excitation energy (eV) =  289.4594
 Total energy for state 44:                  -536.57211127 au
    Multiplicity: Singlet
    Trans. Mom.:  0.0024 X  -0.0550 Y  -0.0055 Z
    Strength   :     0.0217153545
    D( 11) --> V(  8) amplitude =  0.4901
    D( 12) --> V(  6) amplitude = -0.4698
    D( 12) --> V( 24) amplitude = -0.2122

 Excited state  45: excitation energy (eV) =  289.4837
 Total energy for state 45:                  -536.57121811 au
    Multiplicity: Singlet
    Trans. Mom.:  0.0080 X   0.0002 Y  -0.0442 Z
    Strength   :     0.0143175792
    D(  3) --> V(  6) amplitude =  0.5325
    D(  3) --> V( 22) amplitude =  0.2189
    D(  4) --> V(  8) amplitude = -0.4724
    D(  4) --> V( 16) amplitude = -0.2126

 Excited state  46: excitation energy (eV) =  289.4839
 Total energy for state 46:                  -536.57121217 au
    Multiplicity: Singlet
    Trans. Mom.: -0.0000 X   0.1211 Y   0.0001 Z
    Strength   :     0.1040149836
    D(  3) --> V(  8) amplitude = -0.4719
    D(  3) --> V( 16) amplitude = -0.2122
    D(  4) --> V(  6) amplitude =  0.5320
    D(  4) --> V( 22) amplitude =  0.2187

 Excited state  47: excitation energy (eV) =  289.5083
 Total energy for state 47:                  -536.57031472 au
    Multiplicity: Singlet
    Trans. Mom.: -0.0313 X  -0.0052 Y   0.0134 Z
    Strength   :     0.0084001602
    D( 13) --> V(  6) amplitude = -0.2464
    D( 13) --> V(  8) amplitude = -0.3305
    D( 13) --> V( 12) amplitude = -0.2641
    D( 13) --> V( 15) amplitude = -0.2533
    D( 14) --> V(  6) amplitude = -0.2846
    D( 14) --> V(  8) amplitude =  0.3400
    D( 14) --> V( 12) amplitude = -0.3051
    D( 14) --> V( 15) amplitude =  0.2606

 Excited state  48: excitation energy (eV) =  289.5083
 Total energy for state 48:                  -536.57031321 au
    Multiplicity: Singlet
    Trans. Mom.:  0.0013 X  -0.1205 Y  -0.0006 Z
    Strength   :     0.1029960402
    D( 13) --> V(  6) amplitude =  0.2846
    D( 13) --> V(  8) amplitude =  0.3400
    D( 13) --> V( 12) amplitude =  0.3050
    D( 13) --> V( 15) amplitude =  0.2605
    D( 14) --> V(  6) amplitude = -0.2463
    D( 14) --> V(  8) amplitude =  0.3304
    D( 14) --> V( 12) amplitude = -0.2640
    D( 14) --> V( 15) amplitude =  0.2532

 Excited state  49: excitation energy (eV) =  289.5423
 Total energy for state 49:                  -536.56906587 au
    Multiplicity: Singlet
    Trans. Mom.: -0.0792 X   0.0035 Y  -0.0771 Z
    Strength   :     0.0867481313
    D( 13) --> V( 10) amplitude = -0.2620
    D( 13) --> V( 16) amplitude = -0.2175
    D( 14) --> V(  9) amplitude = -0.2480
    D( 14) --> V( 10) amplitude =  0.3779
    D( 14) --> V( 11) amplitude =  0.3110
    D( 14) --> V( 16) amplitude =  0.3136
    D( 14) --> V( 17) amplitude =  0.3377

 Excited state  50: excitation energy (eV) =  289.5423
 Total energy for state 50:                  -536.56906563 au
    Multiplicity: Singlet
    Trans. Mom.:  0.0167 X   0.0165 Y   0.0163 Z
    Strength   :     0.0057819193
    D( 13) --> V(  9) amplitude =  0.2480
    D( 13) --> V( 10) amplitude =  0.3779
    D( 13) --> V( 11) amplitude = -0.3110
    D( 13) --> V( 16) amplitude =  0.3136
    D( 13) --> V( 17) amplitude = -0.3377
    D( 14) --> V( 10) amplitude =  0.2620
    D( 14) --> V( 16) amplitude =  0.2174

 Excited state  51: excitation energy (eV) =  290.1252
 Total energy for state 51:                  -536.54764295 au
    Multiplicity: Singlet
    Trans. Mom.: -0.0000 X   0.0017 Y   0.0000 Z
    Strength   :     0.0000197306
    D(  1) --> V(  3) amplitude =  0.8135
    D(  1) --> V(  5) amplitude = -0.3298
    D(  2) --> V(  4) amplitude =  0.3936

 Excited state  52: excitation energy (eV) =  290.1254
 Total energy for state 52:                  -536.54763668 au
    Multiplicity: Singlet
    Trans. Mom.: -0.0077 X  -0.0000 Y   0.0023 Z
    Strength   :     0.0004534039
    D(  1) --> V(  4) amplitude =  0.3917
    D(  2) --> V(  3) amplitude =  0.8173
    D(  2) --> V(  5) amplitude = -0.3311

 Excited state  53: excitation energy (eV) =  290.2975
 Total energy for state 53:                  -536.54131296 au
    Multiplicity: Singlet
    Trans. Mom.:  0.0295 X   0.0000 Y  -0.0086 Z
    Strength   :     0.0067289700
    D(  3) --> V(  5) amplitude = -0.5392
    D(  4) --> V(  4) amplitude =  0.5657
    D( 11) --> V(  3) amplitude = -0.2895
    D( 11) --> V(  5) amplitude =  0.3047

 Excited state  54: excitation energy (eV) =  290.2975
 Total energy for state 54:                  -536.54131072 au
    Multiplicity: Singlet
    Trans. Mom.:  0.0000 X  -0.0080 Y  -0.0000 Z
    Strength   :     0.0004542492
    D(  3) --> V(  4) amplitude =  0.5616
    D(  4) --> V(  5) amplitude = -0.5364
    D( 12) --> V(  3) amplitude = -0.2945
    D( 12) --> V(  5) amplitude =  0.3091

 Excited state  55: excitation energy (eV) =  290.3037
 Total energy for state 55:                  -536.54108276 au
    Multiplicity: Singlet
    Trans. Mom.:  0.0474 X  -0.0000 Y   0.0104 Z
    Strength   :     0.0167537523
    D(  3) --> V(  5) amplitude = -0.3368
    D(  4) --> V(  4) amplitude =  0.3314
    D( 11) --> V(  3) amplitude =  0.4929
    D( 11) --> V(  5) amplitude = -0.4844
    D( 12) --> V(  7) amplitude = -0.3393

 Excited state  56: excitation energy (eV) =  290.3038
 Total energy for state 56:                  -536.54108100 au
    Multiplicity: Singlet
    Trans. Mom.: -0.0002 X  -0.0031 Y  -0.0000 Z
    Strength   :     0.0000681043
    D(  3) --> V(  4) amplitude =  0.3367
    D(  4) --> V(  5) amplitude = -0.3421
    D( 11) --> V(  7) amplitude = -0.3371
    D( 12) --> V(  3) amplitude =  0.4900
    D( 12) --> V(  5) amplitude = -0.4816

 Excited state  57: excitation energy (eV) =  290.3180
 Total energy for state 57:                  -536.54055763 au
    Multiplicity: Singlet
    Trans. Mom.: -0.0041 X   0.0018 Y  -0.0014 Z
    Strength   :     0.0001592540
    D( 14) --> V(  3) amplitude =  0.6566
    D( 14) --> V(  5) amplitude = -0.4604
    D( 14) --> V(  7) amplitude = -0.4690
    D( 14) --> V(  9) amplitude =  0.2183

 Excited state  58: excitation energy (eV) =  290.3180
 Total energy for state 58:                  -536.54055759 au
    Multiplicity: Singlet
    Trans. Mom.: -0.0033 X  -0.0023 Y  -0.0011 Z
    Strength   :     0.0001238230
    D( 13) --> V(  3) amplitude =  0.6566
    D( 13) --> V(  5) amplitude = -0.4604
    D( 13) --> V(  7) amplitude =  0.4690
    D( 13) --> V(  9) amplitude =  0.2183

 Excited state  59: excitation energy (eV) =  290.3334
 Total energy for state 59:                  -536.53999106 au
    Multiplicity: Singlet
    Trans. Mom.:  0.0000 X   0.0018 Y  -0.0000 Z
    Strength   :     0.0000228706
    D(  5) --> V(  3) amplitude =  0.2295
    D(  7) --> V(  4) amplitude =  0.9250

 Excited state  60: excitation energy (eV) =  290.3494
 Total energy for state 60:                  -536.53940406 au
    Multiplicity: Singlet
    Trans. Mom.:  0.0053 X   0.0000 Y  -0.0043 Z
    Strength   :     0.0003293281
    D(  5) --> V(  4) amplitude =  0.8945
    D(  7) --> V(  3) amplitude =  0.2627

 Excited state  61: excitation energy (eV) =  290.3579
 Total energy for state 61:                  -536.53909389 au
    Multiplicity: Singlet
    Trans. Mom.: -0.0000 X   0.0036 Y   0.0000 Z
    Strength   :     0.0000939837
    D(  6) --> V(  3) amplitude =  0.2357
    D(  8) --> V(  4) amplitude =  0.9226

 Excited state  62: excitation energy (eV) =  290.3601
 Total energy for state 62:                  -536.53901269 au
    Multiplicity: Singlet
    Trans. Mom.: -0.0050 X   0.0000 Y   0.0103 Z
    Strength   :     0.0009370023
    D(  8) --> V(  3) amplitude =  0.8521
    D(  8) --> V(  6) amplitude = -0.3154

 Excited state  63: excitation energy (eV) =  290.3730
 Total energy for state 63:                  -536.53853658 au
    Multiplicity: Singlet
    Trans. Mom.:  0.0420 X   0.0001 Y  -0.0029 Z
    Strength   :     0.0125776398
    D(  9) --> V(  3) amplitude = -0.3040
    D(  9) --> V(  5) amplitude =  0.5865
    D( 10) --> V(  4) amplitude = -0.2561
    D( 10) --> V(  7) amplitude =  0.5113

 Excited state  64: excitation energy (eV) =  290.3730
 Total energy for state 64:                  -536.53853615 au
    Multiplicity: Singlet
    Trans. Mom.:  0.0014 X  -0.0038 Y  -0.0001 Z
    Strength   :     0.0001184686
    D(  9) --> V(  4) amplitude = -0.2561
    D(  9) --> V(  7) amplitude =  0.5113
    D( 10) --> V(  3) amplitude = -0.3041
    D( 10) --> V(  5) amplitude =  0.5865

 Excited state  65: excitation energy (eV) =  290.3767
 Total energy for state 65:                  -536.53840030 au
    Multiplicity: Singlet
    Trans. Mom.:  0.0000 X  -0.0000 Y   0.0024 Z
    Strength   :     0.0000419919
    D(  6) --> V(  4) amplitude =  0.8946
    D(  8) --> V(  5) amplitude = -0.2180

 Excited state  66: excitation energy (eV) =  290.3808
 Total energy for state 66:                  -536.53825132 au
    Multiplicity: Singlet
    Trans. Mom.:  0.0000 X   0.0254 Y  -0.0000 Z
    Strength   :     0.0045770441
    D(  6) --> V(  3) amplitude =  0.8182
    D(  6) --> V(  5) amplitude =  0.2123
    D(  6) --> V(  6) amplitude = -0.3374

 Excited state  67: excitation energy (eV) =  290.4190
 Total energy for state 67:                  -536.53684818 au
    Multiplicity: Singlet
    Trans. Mom.: -0.0000 X  -0.0003 Y  -0.0000 Z
    Strength   :     0.0000006010
    D(  1) --> V(  3) amplitude = -0.2288
    D(  1) --> V(  5) amplitude =  0.3929
    D(  2) --> V(  4) amplitude =  0.8174

 Excited state  68: excitation energy (eV) =  290.4193
 Total energy for state 68:                  -536.53683427 au
    Multiplicity: Singlet
    Trans. Mom.:  0.0236 X   0.0000 Y   0.0178 Z
    Strength   :     0.0062149091
    D(  1) --> V(  4) amplitude =  0.8137
    D(  2) --> V(  3) amplitude = -0.2275
    D(  2) --> V(  5) amplitude =  0.3901

 Excited state  69: excitation energy (eV) =  290.4280
 Total energy for state 69:                  -536.53651711 au
    Multiplicity: Singlet
    Trans. Mom.: -0.0077 X   0.0084 Y   0.0097 Z
    Strength   :     0.0015849359
    D( 11) --> V(  7) amplitude =  0.3530
    D( 11) --> V( 10) amplitude = -0.3897
    D( 12) --> V(  3) amplitude =  0.4197
    D( 12) --> V(  5) amplitude =  0.4007
    D( 12) --> V(  9) amplitude =  0.2156
    D( 12) --> V( 11) amplitude = -0.3184

 Excited state  70: excitation energy (eV) =  290.4280
 Total energy for state 70:                  -536.53651702 au
    Multiplicity: Singlet
    Trans. Mom.: -0.0277 X  -0.0023 Y   0.0349 Z
    Strength   :     0.0141570383
    D( 11) --> V(  3) amplitude =  0.4198
    D( 11) --> V(  5) amplitude =  0.4006
    D( 11) --> V(  9) amplitude =  0.2156
    D( 11) --> V( 11) amplitude = -0.3183
    D( 12) --> V(  7) amplitude =  0.3529
    D( 12) --> V( 10) amplitude = -0.3897

 Excited state  71: excitation energy (eV) =  290.4475
 Total energy for state 71:                  -536.53580128 au
    Multiplicity: Singlet
    Trans. Mom.:  0.0005 X  -0.0000 Y  -0.0041 Z
    Strength   :     0.0001220229
    D(  7) --> V(  3) amplitude =  0.7621
    D(  7) --> V(  6) amplitude =  0.5277

 Excited state  72: excitation energy (eV) =  290.4661
 Total energy for state 72:                  -536.53511496 au
    Multiplicity: Singlet
    Trans. Mom.: -0.0000 X   0.0289 Y  -0.0000 Z
    Strength   :     0.0059467903
    D(  5) --> V(  3) amplitude =  0.7637
    D(  5) --> V(  6) amplitude =  0.5165

 Excited state  73: excitation energy (eV) =  290.4756
 Total energy for state 73:                  -536.53476785 au
    Multiplicity: Singlet
    Trans. Mom.: -0.0022 X   0.0020 Y   0.0036 Z
    Strength   :     0.0001518981
    D( 14) --> V(  3) amplitude =  0.5340
    D( 14) --> V(  4) amplitude =  0.7524
    D( 14) --> V(  7) amplitude =  0.2796

 Excited state  74: excitation energy (eV) =  290.4756
 Total energy for state 74:                  -536.53476776 au
    Multiplicity: Singlet
    Trans. Mom.:  0.0024 X   0.0018 Y  -0.0039 Z
    Strength   :     0.0001714694
    D( 13) --> V(  3) amplitude = -0.5340
    D( 13) --> V(  4) amplitude =  0.7524
    D( 13) --> V(  7) amplitude =  0.2796

 Excited state  75: excitation energy (eV) =  290.4923
 Total energy for state 75:                  -536.53415266 au
    Multiplicity: Singlet
    Trans. Mom.: -0.0025 X   0.0009 Y  -0.0026 Z
    Strength   :     0.0000980013
    D( 11) --> V(  4) amplitude =  0.6636
    D( 11) --> V(  7) amplitude =  0.2434
    D( 11) --> V( 10) amplitude =  0.2480
    D( 12) --> V(  3) amplitude =  0.3571
    D( 12) --> V(  9) amplitude = -0.3198

 Excited state  76: excitation energy (eV) =  290.4923
 Total energy for state 76:                  -536.53415236 au
    Multiplicity: Singlet
    Trans. Mom.: -0.0100 X  -0.0002 Y  -0.0101 Z
    Strength   :     0.0014354661
    D( 11) --> V(  3) amplitude =  0.3577
    D( 11) --> V(  9) amplitude = -0.3204
    D( 12) --> V(  4) amplitude =  0.6648
    D( 12) --> V(  7) amplitude =  0.2437
    D( 12) --> V( 10) amplitude =  0.2485

 Excited state  77: excitation energy (eV) =  290.5025
 Total energy for state 77:                  -536.53377920 au
    Multiplicity: Singlet
    Trans. Mom.:  0.0000 X   0.0032 Y  -0.0000 Z
    Strength   :     0.0000716103
    D(  3) --> V(  4) amplitude =  0.3146
    D(  3) --> V(  7) amplitude =  0.3892
    D(  4) --> V(  3) amplitude =  0.7232
    D(  4) --> V(  9) amplitude = -0.3032

 Excited state  78: excitation energy (eV) =  290.5027
 Total energy for state 78:                  -536.53377169 au
    Multiplicity: Singlet
    Trans. Mom.:  0.0021 X  -0.0000 Y  -0.0093 Z
    Strength   :     0.0006475273
    D(  3) --> V(  3) amplitude =  0.7249
    D(  3) --> V(  9) amplitude = -0.3033
    D(  4) --> V(  4) amplitude =  0.3142
    D(  4) --> V(  7) amplitude =  0.3900

 Excited state  79: excitation energy (eV) =  290.5131
 Total energy for state 79:                  -536.53338941 au
    Multiplicity: Singlet
    Trans. Mom.:  0.0054 X  -0.0029 Y   0.0061 Z
    Strength   :     0.0005358268
    D(  9) --> V(  3) amplitude =  0.4512
    D(  9) --> V(  4) amplitude =  0.3350
    D(  9) --> V(  7) amplitude =  0.3087
    D(  9) --> V(  9) amplitude = -0.2633
    D(  9) --> V( 10) amplitude =  0.2619
    D( 10) --> V(  3) amplitude =  0.5386
    D( 10) --> V(  9) amplitude = -0.3144

 Excited state  80: excitation energy (eV) =  290.5131
 Total energy for state 80:                  -536.53338935 au
    Multiplicity: Singlet
    Trans. Mom.:  0.0129 X   0.0012 Y   0.0144 Z
    Strength   :     0.0026717239
    D(  9) --> V(  3) amplitude =  0.5385
    D(  9) --> V(  9) amplitude = -0.3143
    D( 10) --> V(  3) amplitude = -0.4512
    D( 10) --> V(  4) amplitude =  0.3351
    D( 10) --> V(  7) amplitude =  0.3087
    D( 10) --> V(  9) amplitude =  0.2633
    D( 10) --> V( 10) amplitude =  0.2619

 Excited state  81: excitation energy (eV) =  290.5955
 Total energy for state 81:                  -536.53036071 au
    Multiplicity: Singlet
    Trans. Mom.:  0.0022 X  -0.0040 Y  -0.0054 Z
    Strength   :     0.0003540901
    D(  9) --> V(  4) amplitude =  0.6204
    D(  9) --> V( 10) amplitude = -0.4549
    D( 10) --> V(  5) amplitude =  0.2304
    D( 10) --> V(  9) amplitude =  0.3354
    D( 10) --> V( 11) amplitude = -0.2166

 Excited state  82: excitation energy (eV) =  290.5955
 Total energy for state 82:                  -536.53036065 au
    Multiplicity: Singlet
    Trans. Mom.:  0.0117 X   0.0008 Y  -0.0282 Z
    Strength   :     0.0066489496
    D(  9) --> V(  5) amplitude =  0.2304
    D(  9) --> V(  9) amplitude =  0.3354
    D(  9) --> V( 11) amplitude = -0.2166
    D( 10) --> V(  4) amplitude =  0.6204
    D( 10) --> V( 10) amplitude = -0.4549

 Excited state  83: excitation energy (eV) =  290.6402
 Total energy for state 83:                  -536.52871711 au
    Multiplicity: Singlet
    Trans. Mom.: -0.0143 X  -0.0005 Y  -0.0052 Z
    Strength   :     0.0016414544
    D(  1) --> V(  8) amplitude =  0.2122
    D(  2) --> V(  3) amplitude = -0.3116
    D(  2) --> V(  5) amplitude = -0.5018
    D(  2) --> V(  6) amplitude =  0.6661

 Excited state  84: excitation energy (eV) =  290.6402
 Total energy for state 84:                  -536.52871648 au
    Multiplicity: Singlet
    Trans. Mom.: -0.0005 X   0.0132 Y  -0.0002 Z
    Strength   :     0.0012501418
    D(  1) --> V(  3) amplitude = -0.3099
    D(  1) --> V(  5) amplitude = -0.4995
    D(  1) --> V(  6) amplitude =  0.6663
    D(  2) --> V(  8) amplitude =  0.2144

 Excited state  85: excitation energy (eV) =  290.7099
 Total energy for state 85:                  -536.52615649 au
    Multiplicity: Singlet
    Trans. Mom.:  0.0041 X  -0.0000 Y   0.0018 Z
    Strength   :     0.0001418192
    D(  2) --> V(  6) amplitude =  0.4402
    D(  7) --> V(  5) amplitude =  0.7042
    D(  7) --> V(  6) amplitude = -0.3466

 Excited state  86: excitation energy (eV) =  290.7131
 Total energy for state 86:                  -536.52604008 au
    Multiplicity: Singlet
    Trans. Mom.:  0.0000 X   0.0087 Y   0.0000 Z
    Strength   :     0.0005378047
    D(  1) --> V(  3) amplitude =  0.3775
    D(  1) --> V(  5) amplitude =  0.4436
    D(  1) --> V(  6) amplitude =  0.6218
    D(  2) --> V(  4) amplitude = -0.2240

 Excited state  87: excitation energy (eV) =  290.7144
 Total energy for state 87:                  -536.52599180 au
    Multiplicity: Singlet
    Trans. Mom.:  0.0261 X  -0.0000 Y   0.0070 Z
    Strength   :     0.0052158675
    D(  2) --> V(  3) amplitude =  0.3455
    D(  2) --> V(  5) amplitude =  0.4563
    D(  2) --> V(  6) amplitude =  0.4423
    D(  7) --> V(  5) amplitude = -0.4340
    D(  7) --> V(  6) amplitude =  0.2760

 Excited state  88: excitation energy (eV) =  290.7307
 Total energy for state 88:                  -536.52539196 au
    Multiplicity: Singlet
    Trans. Mom.:  0.0000 X  -0.0109 Y   0.0000 Z
    Strength   :     0.0008434118
    D(  5) --> V(  5) amplitude =  0.8059
    D(  5) --> V(  6) amplitude = -0.4361

 Excited state  89: excitation energy (eV) =  290.7658
 Total energy for state 89:                  -536.52410128 au
    Multiplicity: Singlet
    Trans. Mom.:  0.0079 X   0.0000 Y   0.0079 Z
    Strength   :     0.0008837758
    D(  8) --> V(  5) amplitude =  0.5687
    D(  8) --> V(  6) amplitude =  0.7219

 Excited state  90: excitation energy (eV) =  290.7667
 Total energy for state 90:                  -536.52406746 au
    Multiplicity: Singlet
    Trans. Mom.: -0.0002 X   0.0013 Y   0.0001 Z
    Strength   :     0.0000126627
    D(  3) --> V(  4) amplitude =  0.4778
    D(  3) --> V(  7) amplitude = -0.2330
    D(  4) --> V(  5) amplitude =  0.4935
    D(  4) --> V(  6) amplitude =  0.2529
    D(  4) --> V(  9) amplitude =  0.5282

 Excited state  91: excitation energy (eV) =  290.7669
 Total energy for state 91:                  -536.52406123 au
    Multiplicity: Singlet
    Trans. Mom.: -0.0303 X  -0.0000 Y   0.0144 Z
    Strength   :     0.0080280357
    D(  3) --> V(  5) amplitude =  0.4858
    D(  3) --> V(  6) amplitude =  0.2462
    D(  3) --> V(  9) amplitude =  0.5212
    D(  4) --> V(  4) amplitude =  0.4711
    D(  4) --> V(  7) amplitude = -0.2308

 Excited state  92: excitation energy (eV) =  290.7842
 Total energy for state 92:                  -536.52342571 au
    Multiplicity: Singlet
    Trans. Mom.:  0.0000 X  -0.0132 Y   0.0000 Z
    Strength   :     0.0012505852
    D(  6) --> V(  5) amplitude =  0.5720
    D(  6) --> V(  6) amplitude =  0.7175

 Excited state  93: excitation energy (eV) =  290.8839
 Total energy for state 93:                  -536.51976196 au
    Multiplicity: Singlet
    Trans. Mom.:  0.0034 X  -0.0048 Y  -0.0114 Z
    Strength   :     0.0011672248
    D( 14) --> V(  5) amplitude =  0.7254
    D( 14) --> V(  7) amplitude = -0.4535
    D( 14) --> V(  9) amplitude =  0.3429

 Excited state  94: excitation energy (eV) =  290.8839
 Total energy for state 94:                  -536.51976185 au
    Multiplicity: Singlet
    Trans. Mom.:  0.0033 X   0.0049 Y  -0.0112 Z
    Strength   :     0.0011443219
    D( 13) --> V(  5) amplitude =  0.7254
    D( 13) --> V(  7) amplitude =  0.4535
    D( 13) --> V(  9) amplitude =  0.3429

 Excited state  95: excitation energy (eV) =  290.8909
 Total energy for state 95:                  -536.51950398 au
    Multiplicity: Singlet
    Trans. Mom.:  0.0045 X  -0.0000 Y  -0.0034 Z
    Strength   :     0.0002309042
    D( 11) --> V(  7) amplitude = -0.5482
    D( 12) --> V(  5) amplitude =  0.5967
    D( 12) --> V(  7) amplitude = -0.2126
    D( 12) --> V(  9) amplitude =  0.3393

 Excited state  96: excitation energy (eV) =  290.8909
 Total energy for state 96:                  -536.51950380 au
    Multiplicity: Singlet
    Trans. Mom.:  0.0135 X   0.0000 Y  -0.0102 Z
    Strength   :     0.0020494019
    D( 11) --> V(  5) amplitude =  0.5967
    D( 11) --> V(  7) amplitude =  0.2126
    D( 11) --> V(  9) amplitude =  0.3392
    D( 12) --> V(  7) amplitude = -0.5482

 Excited state  97: excitation energy (eV) =  290.9273
 Total energy for state 97:                  -536.51816587 au
    Multiplicity: Singlet
    Trans. Mom.:  0.0000 X   0.0069 Y  -0.0000 Z
    Strength   :     0.0003429826
    D(  6) --> V(  6) amplitude =  0.2163
    D(  8) --> V(  4) amplitude = -0.2487
    D(  8) --> V(  7) amplitude =  0.8728
    D(  8) --> V(  8) amplitude =  0.2241

 Excited state  98: excitation energy (eV) =  290.9429
 Total energy for state 98:                  -536.51759367 au
    Multiplicity: Singlet
    Trans. Mom.: -0.0005 X   0.0000 Y   0.0049 Z
    Strength   :     0.0001699052
    D(  6) --> V(  4) amplitude = -0.2506
    D(  6) --> V(  7) amplitude =  0.8627
    D(  6) --> V(  8) amplitude =  0.2268
    D(  8) --> V(  6) amplitude =  0.2127

 Excited state  99: excitation energy (eV) =  290.9581
 Total energy for state 99:                  -536.51703583 au
    Multiplicity: Singlet
    Trans. Mom.: -0.0017 X  -0.0143 Y  -0.0026 Z
    Strength   :     0.0015182365
    D( 14) --> V(  6) amplitude =  0.8502

 Excited state 100: excitation energy (eV) =  290.9581
 Total energy for state100:                  -536.51703573 au
    Multiplicity: Singlet
    Trans. Mom.: -0.0011 X   0.0216 Y  -0.0017 Z
    Strength   :     0.0033413792
    D( 13) --> V(  6) amplitude =  0.8502

 Excited state 101: excitation energy (eV) =  290.9637
 Total energy for state101:                  -536.51683034 au
    Multiplicity: Singlet
    Trans. Mom.: -0.0243 X   0.0001 Y   0.0200 Z
    Strength   :     0.0070591621
    D(  9) --> V(  5) amplitude =  0.6022
    D(  9) --> V(  6) amplitude = -0.2351
    D(  9) --> V( 11) amplitude =  0.3332
    D( 10) --> V(  7) amplitude = -0.4102

 Excited state 102: excitation energy (eV) =  290.9637
 Total energy for state102:                  -536.51683027 au
    Multiplicity: Singlet
    Trans. Mom.: -0.0003 X  -0.0097 Y   0.0002 Z
    Strength   :     0.0006676292
    D(  9) --> V(  7) amplitude = -0.4102
    D( 10) --> V(  5) amplitude =  0.6021
    D( 10) --> V(  6) amplitude = -0.2351
    D( 10) --> V( 11) amplitude =  0.3332

 Excited state 103: excitation energy (eV) =  290.9678
 Total energy for state103:                  -536.51667891 au
    Multiplicity: Singlet
    Trans. Mom.:  0.0000 X   0.0040 Y  -0.0000 Z
    Strength   :     0.0001115046
    D(  7) --> V(  4) amplitude = -0.2374
    D(  7) --> V(  7) amplitude =  0.8763
    D(  7) --> V(  8) amplitude = -0.2327

 Excited state 104: excitation energy (eV) =  290.9823
 Total energy for state104:                  -536.51614786 au
    Multiplicity: Singlet
    Trans. Mom.: -0.0099 X  -0.0000 Y  -0.0027 Z
    Strength   :     0.0007479243
    D(  1) --> V(  7) amplitude = -0.3065
    D(  2) --> V(  9) amplitude = -0.2794
    D(  5) --> V(  4) amplitude = -0.2138
    D(  5) --> V(  7) amplitude =  0.7828

 Excited state 105: excitation energy (eV) =  290.9959
 Total energy for state105:                  -536.51564763 au
    Multiplicity: Singlet
    Trans. Mom.:  0.0000 X  -0.0033 Y  -0.0000 Z
    Strength   :     0.0000791163
    D(  1) --> V(  9) amplitude =  0.5637
    D(  2) --> V(  7) amplitude =  0.6882

 Excited state 106: excitation energy (eV) =  290.9983
 Total energy for state106:                  -536.51555948 au
    Multiplicity: Singlet
    Trans. Mom.:  0.0201 X   0.0000 Y  -0.0041 Z
    Strength   :     0.0029870319
    D(  1) --> V(  7) amplitude =  0.6168
    D(  2) --> V(  9) amplitude =  0.4954
    D(  5) --> V(  7) amplitude =  0.4070

 Excited state 107: excitation energy (eV) =  291.0281
 Total energy for state107:                  -536.51446387 au
    Multiplicity: Singlet
    Trans. Mom.: -0.0013 X   0.0000 Y   0.0204 Z
    Strength   :     0.0029849515
    D(  8) --> V(  5) amplitude = -0.3573
    D(  8) --> V(  9) amplitude =  0.8120

 Excited state 108: excitation energy (eV) =  291.0454
 Total energy for state108:                  -536.51382592 au
    Multiplicity: Singlet
    Trans. Mom.: -0.0000 X   0.0087 Y   0.0000 Z
    Strength   :     0.0005389435
    D(  6) --> V(  5) amplitude = -0.3628
    D(  6) --> V(  9) amplitude =  0.8083

 Excited state 109: excitation energy (eV) =  291.0822
 Total energy for state109:                  -536.51247598 au
    Multiplicity: Singlet
    Trans. Mom.:  0.0013 X  -0.0135 Y   0.0012 Z
    Strength   :     0.0013160667
    D( 11) --> V(  6) amplitude = -0.4318
    D( 11) --> V(  8) amplitude =  0.4724
    D( 12) --> V(  6) amplitude =  0.6263
    D( 12) --> V(  8) amplitude = -0.2650

 Excited state 110: excitation energy (eV) =  291.0822
 Total energy for state110:                  -536.51247588 au
    Multiplicity: Singlet
    Trans. Mom.: -0.0021 X  -0.0084 Y  -0.0019 Z
    Strength   :     0.0005618301
    D( 11) --> V(  6) amplitude =  0.6262
    D( 11) --> V(  8) amplitude =  0.2651
    D( 12) --> V(  6) amplitude =  0.4319
    D( 12) --> V(  8) amplitude =  0.4723

 Excited state 111: excitation energy (eV) =  291.0952
 Total energy for state111:                  -536.51199741 au
    Multiplicity: Singlet
    Trans. Mom.: -0.0024 X  -0.0000 Y   0.0154 Z
    Strength   :     0.0017329994
    D(  3) --> V(  5) amplitude = -0.2762
    D(  3) --> V(  6) amplitude =  0.4141
    D(  3) --> V(  9) amplitude =  0.3302
    D(  3) --> V( 11) amplitude = -0.2938
    D(  4) --> V(  7) amplitude =  0.5611
    D(  4) --> V(  8) amplitude =  0.2184
    D(  4) --> V( 10) amplitude = -0.3007

 Excited state 112: excitation energy (eV) =  291.0953
 Total energy for state112:                  -536.51199273 au
    Multiplicity: Singlet
    Trans. Mom.:  0.0000 X  -0.0090 Y  -0.0001 Z
    Strength   :     0.0005800568
    D(  3) --> V(  7) amplitude =  0.5738
    D(  3) --> V(  8) amplitude =  0.2241
    D(  3) --> V( 10) amplitude = -0.3078
    D(  4) --> V(  5) amplitude = -0.2836
    D(  4) --> V(  6) amplitude =  0.4235
    D(  4) --> V(  9) amplitude =  0.3409
    D(  4) --> V( 11) amplitude = -0.3014

 Excited state 113: excitation energy (eV) =  291.0984
 Total energy for state113:                  -536.51187960 au
    Multiplicity: Singlet
    Trans. Mom.:  0.0014 X   0.0000 Y  -0.0179 Z
    Strength   :     0.0023089413
    D(  7) --> V(  5) amplitude = -0.2385
    D(  7) --> V(  6) amplitude = -0.2373
    D(  7) --> V(  9) amplitude =  0.8637

 Excited state 114: excitation energy (eV) =  291.1051
 Total energy for state114:                  -536.51163318 au
    Multiplicity: Singlet
    Trans. Mom.:  0.0010 X   0.0156 Y  -0.0031 Z
    Strength   :     0.0018067507
    D(  9) --> V(  6) amplitude = -0.5369
    D( 10) --> V(  6) amplitude =  0.5985
    D( 10) --> V(  8) amplitude = -0.3196

 Excited state 115: excitation energy (eV) =  291.1051
 Total energy for state115:                  -536.51163302 au
    Multiplicity: Singlet
    Trans. Mom.: -0.0006 X   0.0259 Y   0.0019 Z
    Strength   :     0.0048083388
    D(  9) --> V(  6) amplitude =  0.5985
    D(  9) --> V(  8) amplitude =  0.3197
    D( 10) --> V(  6) amplitude =  0.5369

 Excited state 116: excitation energy (eV) =  291.1162
 Total energy for state116:                  -536.51122679 au
    Multiplicity: Singlet
    Trans. Mom.: -0.0000 X   0.0040 Y   0.0000 Z
    Strength   :     0.0001144781
    D(  5) --> V(  5) amplitude = -0.2394
    D(  5) --> V(  6) amplitude = -0.2247
    D(  5) --> V(  9) amplitude =  0.8679

 Excited state 117: excitation energy (eV) =  291.1368
 Total energy for state117:                  -536.51046871 au
    Multiplicity: Singlet
    Trans. Mom.:  0.0000 X  -0.0099 Y  -0.0000 Z
    Strength   :     0.0007026575
    D(  1) --> V(  9) amplitude = -0.2494
    D(  5) --> V(  6) amplitude =  0.2592
    D(  7) --> V(  7) amplitude =  0.2907
    D(  7) --> V(  8) amplitude =  0.8140

 Excited state 118: excitation energy (eV) =  291.1427
 Total energy for state118:                  -536.51025110 au
    Multiplicity: Singlet
    Trans. Mom.:  0.0177 X   0.0000 Y  -0.0134 Z
    Strength   :     0.0035268623
    D(  1) --> V(  7) amplitude = -0.5470
    D(  2) --> V(  5) amplitude = -0.2978
    D(  2) --> V(  9) amplitude =  0.5935
    D(  5) --> V(  8) amplitude =  0.2723

 Excited state 119: excitation energy (eV) =  291.1462
 Total energy for state119:                  -536.51012241 au
    Multiplicity: Singlet
    Trans. Mom.:  0.0000 X  -0.0036 Y  -0.0000 Z
    Strength   :     0.0000902288
    D(  1) --> V(  5) amplitude = -0.2823
    D(  1) --> V(  9) amplitude =  0.5711
    D(  2) --> V(  7) amplitude = -0.5371
    D(  7) --> V(  8) amplitude =  0.3441

 Excited state 120: excitation energy (eV) =  291.1564
 Total energy for state120:                  -536.50974737 au
    Multiplicity: Singlet
    Trans. Mom.: -0.0029 X  -0.0000 Y  -0.0019 Z
    Strength   :     0.0000859828
    D(  1) --> V(  7) amplitude =  0.2131
    D(  5) --> V(  7) amplitude =  0.3026
    D(  5) --> V(  8) amplitude =  0.8234
    D(  7) --> V(  6) amplitude =  0.2218

 Excited state 121: excitation energy (eV) =  291.1792
 Total energy for state121:                  -536.50891170 au
    Multiplicity: Singlet
    Trans. Mom.: -0.0000 X   0.0086 Y   0.0000 Z
    Strength   :     0.0005327175
    D(  8) --> V(  7) amplitude = -0.2959
    D(  8) --> V(  8) amplitude =  0.9167

 Excited state 122: excitation energy (eV) =  291.1964
 Total energy for state122:                  -536.50827809 au
    Multiplicity: Singlet
    Trans. Mom.:  0.0006 X   0.0000 Y  -0.0071 Z
    Strength   :     0.0003573560
    D(  6) --> V(  7) amplitude = -0.2996
    D(  6) --> V(  8) amplitude =  0.9024

 Excited state 123: excitation energy (eV) =  291.2372
 Total energy for state123:                  -536.50677827 au
    Multiplicity: Singlet
    Trans. Mom.: -0.0050 X   0.0026 Y  -0.0100 Z
    Strength   :     0.0009404513
    D( 14) --> V(  7) amplitude =  0.5577
    D( 14) --> V(  9) amplitude =  0.7428

 Excited state 124: excitation energy (eV) =  291.2372
 Total energy for state124:                  -536.50677815 au
    Multiplicity: Singlet
    Trans. Mom.: -0.0053 X  -0.0024 Y  -0.0107 Z
    Strength   :     0.0010551348
    D( 13) --> V(  7) amplitude = -0.5577
    D( 13) --> V(  9) amplitude =  0.7428

 Excited state 125: excitation energy (eV) =  291.2412
 Total energy for state125:                  -536.50663041 au
    Multiplicity: Singlet
    Trans. Mom.:  0.0020 X   0.0003 Y  -0.0080 Z
    Strength   :     0.0004808430
    D(  3) --> V(  6) amplitude =  0.5416
    D(  3) --> V(  9) amplitude = -0.3689
    D(  4) --> V(  7) amplitude = -0.2305
    D(  4) --> V(  8) amplitude =  0.6382
    D(  4) --> V( 10) amplitude =  0.2194

 Excited state 126: excitation energy (eV) =  291.2413
 Total energy for state126:                  -536.50662800 au
    Multiplicity: Singlet
    Trans. Mom.:  0.0000 X  -0.0144 Y  -0.0002 Z
    Strength   :     0.0014716965
    D(  3) --> V(  7) amplitude = -0.2310
    D(  3) --> V(  8) amplitude =  0.6377
    D(  3) --> V( 10) amplitude =  0.2192
    D(  4) --> V(  6) amplitude =  0.5416
    D(  4) --> V(  9) amplitude = -0.3693

 Excited state 127: excitation energy (eV) =  291.2660
 Total energy for state127:                  -536.50572025 au
    Multiplicity: Singlet
    Trans. Mom.: -0.0002 X   0.0086 Y  -0.0015 Z
    Strength   :     0.0005491898
    D( 11) --> V(  7) amplitude =  0.4237
    D( 12) --> V(  9) amplitude =  0.7138
    D( 12) --> V( 11) amplitude =  0.3348

 Excited state 128: excitation energy (eV) =  291.2660
 Total energy for state128:                  -536.50571976 au
    Multiplicity: Singlet
    Trans. Mom.: -0.0009 X  -0.0016 Y  -0.0080 Z
    Strength   :     0.0004815880
    D( 11) --> V(  9) amplitude =  0.7138
    D( 11) --> V( 11) amplitude =  0.3348
    D( 12) --> V(  7) amplitude =  0.4237

 Excited state 129: excitation energy (eV) =  291.2748
 Total energy for state129:                  -536.50539752 au
    Multiplicity: Singlet
    Trans. Mom.: -0.0000 X  -0.0056 Y   0.0000 Z
    Strength   :     0.0002215828
    D(  1) --> V(  6) amplitude = -0.2911
    D(  2) --> V(  8) amplitude =  0.9188

 Excited state 130: excitation energy (eV) =  291.2749
 Total energy for state130:                  -536.50539326 au
    Multiplicity: Singlet
    Trans. Mom.:  0.0073 X  -0.0000 Y  -0.0016 Z
    Strength   :     0.0003965932
    D(  1) --> V(  8) amplitude =  0.9180
    D(  2) --> V(  6) amplitude = -0.2909

 Excited state 131: excitation energy (eV) =  291.3252
 Total energy for state131:                  -536.50354524 au
    Multiplicity: Singlet
    Trans. Mom.: -0.0274 X  -0.0009 Y   0.0178 Z
    Strength   :     0.0076150484
    D(  9) --> V(  9) amplitude =  0.4341
    D(  9) --> V( 11) amplitude =  0.3720
    D( 10) --> V(  7) amplitude =  0.5807
    D( 10) --> V(  9) amplitude = -0.2251
    D( 10) --> V( 10) amplitude =  0.2299
    D( 10) --> V( 13) amplitude =  0.2483

 Excited state 132: excitation energy (eV) =  291.3252
 Total energy for state132:                  -536.50354508 au
    Multiplicity: Singlet
    Trans. Mom.: -0.0050 X   0.0049 Y   0.0032 Z
    Strength   :     0.0004278359
    D(  9) --> V(  7) amplitude =  0.5807
    D(  9) --> V(  9) amplitude =  0.2251
    D(  9) --> V( 10) amplitude =  0.2299
    D(  9) --> V( 13) amplitude =  0.2483
    D( 10) --> V(  9) amplitude =  0.4341
    D( 10) --> V( 11) amplitude =  0.3720

 Excited state 133: excitation energy (eV) =  291.3393
 Total energy for state133:                  -536.50302617 au
    Multiplicity: Singlet
    Trans. Mom.:  0.0070 X   0.0125 Y  -0.0054 Z
    Strength   :     0.0016716362
    D( 13) --> V(  8) amplitude = -0.2849
    D( 14) --> V(  8) amplitude =  0.8157

 Excited state 134: excitation energy (eV) =  291.3393
 Total energy for state134:                  -536.50302607 au
    Multiplicity: Singlet
    Trans. Mom.: -0.0036 X   0.0241 Y   0.0028 Z
    Strength   :     0.0042867523
    D( 13) --> V(  8) amplitude =  0.8157
    D( 14) --> V(  8) amplitude =  0.2849

 Excited state 135: excitation energy (eV) =  291.4094
 Total energy for state135:                  -536.50044997 au
    Multiplicity: Singlet
    Trans. Mom.: -0.0002 X  -0.0046 Y  -0.0001 Z
    Strength   :     0.0001501694
    D(  3) --> V(  7) amplitude =  0.2887
    D(  3) --> V( 10) amplitude =  0.5381
    D(  4) --> V(  5) amplitude = -0.2649
    D(  4) --> V(  9) amplitude =  0.3132
    D(  4) --> V( 11) amplitude =  0.5935

 Excited state 136: excitation energy (eV) =  291.4095
 Total energy for state136:                  -536.50044807 au
    Multiplicity: Singlet
    Trans. Mom.: -0.0163 X   0.0000 Y  -0.0106 Z
    Strength   :     0.0026869542
    D(  3) --> V(  5) amplitude = -0.2648
    D(  3) --> V(  9) amplitude =  0.3140
    D(  3) --> V( 11) amplitude =  0.5925
    D(  4) --> V(  7) amplitude =  0.2885
    D(  4) --> V( 10) amplitude =  0.5390

 Excited state 137: excitation energy (eV) =  291.4676
 Total energy for state137:                  -536.49831100 au
    Multiplicity: Singlet
    Trans. Mom.:  0.0000 X  -0.0090 Y  -0.0000 Z
    Strength   :     0.0005753889
    D(  7) --> V(  8) amplitude = -0.2358
    D(  7) --> V( 10) amplitude =  0.8927

 Excited state 138: excitation energy (eV) =  291.4786
 Total energy for state138:                  -536.49790556 au
    Multiplicity: Singlet
    Trans. Mom.:  0.0256 X   0.0000 Y   0.0229 Z
    Strength   :     0.0084570328
    D(  2) --> V( 11) amplitude =  0.5382
    D(  5) --> V( 10) amplitude =  0.3209
    D(  8) --> V( 11) amplitude = -0.5029

 Excited state 139: excitation energy (eV) =  291.4828
 Total energy for state139:                  -536.49775358 au
    Multiplicity: Singlet
    Trans. Mom.:  0.0000 X   0.0073 Y  -0.0000 Z
    Strength   :     0.0003847349
    D(  1) --> V(  5) amplitude = -0.2522
    D(  1) --> V( 11) amplitude =  0.6690
    D(  2) --> V( 10) amplitude = -0.2807
    D(  2) --> V( 13) amplitude = -0.2125
    D(  6) --> V( 11) amplitude =  0.3648

 Excited state 140: excitation energy (eV) =  291.4846
 Total energy for state140:                  -536.49768520 au
    Multiplicity: Singlet
    Trans. Mom.:  0.0080 X   0.0000 Y  -0.0228 Z
    Strength   :     0.0041751784
    D(  5) --> V(  8) amplitude = -0.2337
    D(  5) --> V( 10) amplitude =  0.7998
    D(  8) --> V( 11) amplitude =  0.2765

 Excited state 141: excitation energy (eV) =  291.4952
 Total energy for state141:                  -536.49729912 au
    Multiplicity: Singlet
    Trans. Mom.:  0.0294 X   0.0000 Y   0.0122 Z
    Strength   :     0.0072196761
    D(  2) --> V( 11) amplitude =  0.4967
    D(  8) --> V( 11) amplitude =  0.5891

 Excited state 142: excitation energy (eV) =  291.5057
 Total energy for state142:                  -536.49691164 au
    Multiplicity: Singlet
    Trans. Mom.: -0.0000 X   0.0165 Y   0.0000 Z
    Strength   :     0.0019475320
    D(  1) --> V( 11) amplitude = -0.2789
    D(  6) --> V(  5) amplitude = -0.2446
    D(  6) --> V( 11) amplitude =  0.6142
    D(  8) --> V( 10) amplitude = -0.4630

 Excited state 143: excitation energy (eV) =  291.5105
 Total energy for state143:                  -536.49673382 au
    Multiplicity: Singlet
    Trans. Mom.: -0.0037 X  -0.0014 Y   0.0050 Z
    Strength   :     0.0002952648
    D(  9) --> V(  8) amplitude =  0.2363
    D(  9) --> V( 12) amplitude =  0.3117
    D(  9) --> V( 22) amplitude = -0.2228
    D( 10) --> V(  8) amplitude =  0.6755
    D( 10) --> V( 18) amplitude = -0.2321

 Excited state 144: excitation energy (eV) =  291.5105
 Total energy for state144:                  -536.49673363 au
    Multiplicity: Singlet
    Trans. Mom.:  0.0001 X  -0.0351 Y  -0.0002 Z
    Strength   :     0.0087950136
    D(  9) --> V(  8) amplitude =  0.6755
    D(  9) --> V( 18) amplitude = -0.2321
    D( 10) --> V(  8) amplitude = -0.2363
    D( 10) --> V( 12) amplitude =  0.3117
    D( 10) --> V( 22) amplitude = -0.2228

 Excited state 145: excitation energy (eV) =  291.5241
 Total energy for state145:                  -536.49623596 au
    Multiplicity: Singlet
    Trans. Mom.:  0.0368 X  -0.0042 Y  -0.0058 Z
    Strength   :     0.0100589551
    D( 13) --> V( 11) amplitude =  0.2496
    D( 14) --> V( 10) amplitude =  0.3026
    D( 14) --> V( 11) amplitude =  0.4399
    D( 14) --> V( 14) amplitude =  0.2582
    D( 14) --> V( 16) amplitude = -0.3175
    D( 14) --> V( 17) amplitude = -0.2936

 Excited state 146: excitation energy (eV) =  291.5241
 Total energy for state146:                  -536.49623567 au
    Multiplicity: Singlet
    Trans. Mom.:  0.0090 X   0.0171 Y  -0.0014 Z
    Strength   :     0.0026735306
    D( 13) --> V( 10) amplitude = -0.3026
    D( 13) --> V( 11) amplitude =  0.4399
    D( 13) --> V( 14) amplitude =  0.2582
    D( 13) --> V( 16) amplitude =  0.3175
    D( 13) --> V( 17) amplitude = -0.2936
    D( 14) --> V( 11) amplitude = -0.2496

 Excited state 147: excitation energy (eV) =  291.5302
 Total energy for state147:                  -536.49600937 au
    Multiplicity: Singlet
    Trans. Mom.: -0.0000 X   0.0078 Y  -0.0000 Z
    Strength   :     0.0004393850
    D(  6) --> V( 11) amplitude =  0.4391
    D(  8) --> V( 10) amplitude =  0.8403

 Excited state 148: excitation energy (eV) =  291.5441
 Total energy for state148:                  -536.49550026 au
    Multiplicity: Singlet
    Trans. Mom.: -0.0060 X   0.0000 Y   0.0143 Z
    Strength   :     0.0017219581
    D(  6) --> V( 10) amplitude =  0.9242
    D(  8) --> V( 11) amplitude =  0.2293

 Excited state 149: excitation energy (eV) =  291.5966
 Total energy for state149:                  -536.49357160 au
    Multiplicity: Singlet
    Trans. Mom.:  0.0166 X  -0.0008 Y  -0.0141 Z
    Strength   :     0.0033796751
    D( 11) --> V(  9) amplitude = -0.2166
    D( 11) --> V( 11) amplitude =  0.2570
    D( 11) --> V( 19) amplitude =  0.2139
    D( 11) --> V( 24) amplitude =  0.2736
    D( 12) --> V(  8) amplitude =  0.4674
    D( 12) --> V( 10) amplitude = -0.4816
    D( 12) --> V( 16) amplitude =  0.2139
    D( 12) --> V( 18) amplitude =  0.3378

 Excited state 150: excitation energy (eV) =  291.5966
 Total energy for state150:                  -536.49357057 au
    Multiplicity: Singlet
    Trans. Mom.:  0.0003 X   0.0403 Y  -0.0003 Z
    Strength   :     0.0116317561
    D( 11) --> V(  8) amplitude =  0.4673
    D( 11) --> V( 10) amplitude = -0.4817
    D( 11) --> V( 16) amplitude =  0.2138
    D( 11) --> V( 18) amplitude =  0.3377
    D( 12) --> V(  9) amplitude = -0.2166
    D( 12) --> V( 11) amplitude =  0.2571
    D( 12) --> V( 19) amplitude =  0.2139
    D( 12) --> V( 24) amplitude =  0.2736

 Excited state 151: excitation energy (eV) =  291.6176
 Total energy for state151:                  -536.49279959 au
    Multiplicity: Singlet
    Trans. Mom.: -0.0052 X  -0.0000 Y   0.0094 Z
    Strength   :     0.0008190674
    D(  7) --> V( 11) amplitude =  0.8489
    D(  7) --> V( 12) amplitude = -0.3752

 Excited state 152: excitation energy (eV) =  291.6281
 Total energy for state152:                  -536.49241445 au
    Multiplicity: Singlet
    Trans. Mom.:  0.0111 X  -0.0002 Y   0.0058 Z
    Strength   :     0.0011112725
    D( 13) --> V( 10) amplitude = -0.4865
    D( 13) --> V( 11) amplitude = -0.2143
    D( 14) --> V(  9) amplitude =  0.2470
    D( 14) --> V( 10) amplitude =  0.5463
    D( 14) --> V( 11) amplitude = -0.2706

 Excited state 153: excitation energy (eV) =  291.6281
 Total energy for state153:                  -536.49241439 au
    Multiplicity: Singlet
    Trans. Mom.: -0.0010 X  -0.0025 Y  -0.0005 Z
    Strength   :     0.0000517105
    D( 13) --> V(  9) amplitude = -0.2470
    D( 13) --> V( 10) amplitude =  0.5463
    D( 13) --> V( 11) amplitude =  0.2706
    D( 14) --> V( 10) amplitude =  0.4867
    D( 14) --> V( 11) amplitude = -0.2144

 Excited state 154: excitation energy (eV) =  291.6352
 Total energy for state154:                  -536.49215281 au
    Multiplicity: Singlet
    Trans. Mom.:  0.0000 X   0.0098 Y   0.0000 Z
    Strength   :     0.0006821764
    D(  2) --> V( 10) amplitude = -0.5334
    D(  5) --> V( 11) amplitude =  0.7047
    D(  5) --> V( 12) amplitude = -0.3089

 Excited state 155: excitation energy (eV) =  291.6367
 Total energy for state155:                  -536.49209552 au
    Multiplicity: Singlet
    Trans. Mom.:  0.0243 X   0.0029 Y  -0.0148 Z
    Strength   :     0.0058292050
    D(  9) --> V(  9) amplitude =  0.3730
    D(  9) --> V( 11) amplitude = -0.2464
    D(  9) --> V( 14) amplitude = -0.2323
    D( 10) --> V( 10) amplitude =  0.4754
    D( 10) --> V( 13) amplitude = -0.2565
    D( 13) --> V( 10) amplitude =  0.2430

 Excited state 156: excitation energy (eV) =  291.6368
 Total energy for state156:                  -536.49209524 au
    Multiplicity: Singlet
    Trans. Mom.:  0.0044 X  -0.0162 Y  -0.0026 Z
    Strength   :     0.0020582673
    D(  9) --> V( 10) amplitude =  0.4759
    D(  9) --> V( 13) amplitude = -0.2568
    D( 10) --> V(  9) amplitude =  0.3734
    D( 10) --> V( 11) amplitude = -0.2468
    D( 10) --> V( 14) amplitude = -0.2326
    D( 14) --> V( 10) amplitude = -0.2425

 Excited state 157: excitation energy (eV) =  291.6387
 Total energy for state157:                  -536.49202460 au
    Multiplicity: Singlet
    Trans. Mom.:  0.0114 X  -0.0000 Y   0.0171 Z
    Strength   :     0.0030179738
    D(  1) --> V( 10) amplitude =  0.9053

 Excited state 158: excitation energy (eV) =  291.6402
 Total energy for state158:                  -536.49196852 au
    Multiplicity: Singlet
    Trans. Mom.:  0.0000 X   0.0032 Y   0.0000 Z
    Strength   :     0.0000740693
    D(  1) --> V( 11) amplitude =  0.2123
    D(  2) --> V( 10) amplitude =  0.7438
    D(  5) --> V( 11) amplitude =  0.4448
    D(  5) --> V( 12) amplitude = -0.2219

 Excited state 159: excitation energy (eV) =  291.6538
 Total energy for state159:                  -536.49147032 au
    Multiplicity: Singlet
    Trans. Mom.: -0.0383 X  -0.0013 Y   0.0010 Z
    Strength   :     0.0105262811
    D( 11) --> V( 11) amplitude =  0.4649
    D( 11) --> V( 14) amplitude =  0.3430
    D( 12) --> V( 10) amplitude = -0.3919
    D( 12) --> V( 13) amplitude =  0.3519
    D( 12) --> V( 18) amplitude = -0.2405

 Excited state 160: excitation energy (eV) =  291.6538
 Total energy for state160:                  -536.49146914 au
    Multiplicity: Singlet
    Trans. Mom.:  0.0022 X  -0.0228 Y  -0.0001 Z
    Strength   :     0.0037463896
    D( 11) --> V( 10) amplitude = -0.3919
    D( 11) --> V( 13) amplitude =  0.3519
    D( 11) --> V( 18) amplitude = -0.2407
    D( 12) --> V( 11) amplitude =  0.4650
    D( 12) --> V( 14) amplitude =  0.3432

 Excited state 161: excitation energy (eV) =  291.7020
 Total energy for state161:                  -536.48969680 au
    Multiplicity: Singlet
    Trans. Mom.:  0.0074 X   0.0000 Y   0.0084 Z
    Strength   :     0.0008938931
    D(  5) --> V( 10) amplitude = -0.2843
    D(  7) --> V(  6) amplitude =  0.2862
    D(  7) --> V( 11) amplitude =  0.4298
    D(  7) --> V( 12) amplitude =  0.7322

 Excited state 162: excitation energy (eV) =  291.7086
 Total energy for state162:                  -536.48945551 au
    Multiplicity: Singlet
    Trans. Mom.:  0.0047 X   0.0007 Y   0.0013 Z
    Strength   :     0.0001712796
    D(  3) --> V(  9) amplitude =  0.3139
    D(  3) --> V( 11) amplitude = -0.4840
    D(  4) --> V(  8) amplitude =  0.2464
    D(  4) --> V( 10) amplitude =  0.5361
    D(  4) --> V( 16) amplitude = -0.2507

 Excited state 163: excitation energy (eV) =  291.7086
 Total energy for state163:                  -536.48945417 au
    Multiplicity: Singlet
    Trans. Mom.: -0.0001 X   0.0299 Y  -0.0000 Z
    Strength   :     0.0064080028
    D(  3) --> V(  8) amplitude =  0.2463
    D(  3) --> V( 10) amplitude =  0.5380
    D(  3) --> V( 16) amplitude = -0.2505
    D(  4) --> V(  9) amplitude =  0.3136
    D(  4) --> V( 11) amplitude = -0.4842

 Excited state 164: excitation energy (eV) =  291.7182
 Total energy for state164:                  -536.48910394 au
    Multiplicity: Singlet
    Trans. Mom.:  0.0000 X  -0.0260 Y   0.0000 Z
    Strength   :     0.0048194772
[...]
    D( 12) --> V( 15) amplitude = -0.3286

 Excited state 171: excitation energy (eV) =  291.8246
 Total energy for state171:                  -536.48519301 au
    Multiplicity: Singlet
    Trans. Mom.:  0.0021 X  -0.0180 Y   0.0005 Z
    Strength   :     0.0023611264
    D( 11) --> V( 15) amplitude = -0.3286
    D( 12) --> V( 11) amplitude =  0.2934
    D( 12) --> V( 12) amplitude =  0.6752
    D( 12) --> V( 14) amplitude = -0.2241

 Excited state 172: excitation energy (eV) =  291.8307
 Total energy for state172:                  -536.48496859 au
    Multiplicity: Singlet
    Trans. Mom.:  0.0000 X   0.0158 Y  -0.0000 Z
    Strength   :     0.0017795321
    D(  6) --> V(  9) amplitude = -0.2792
    D(  6) --> V( 12) amplitude =  0.7091
    D(  6) --> V( 14) amplitude = -0.3161
    D(  6) --> V( 21) amplitude =  0.3236
    D(  8) --> V( 13) amplitude =  0.2379

 Excited state 173: excitation energy (eV) =  291.8865
 Total energy for state173:                  -536.48291872 au
    Multiplicity: Singlet
    Trans. Mom.:  0.0442 X   0.0000 Y  -0.0243 Z
    Strength   :     0.0181685728
    D(  9) --> V( 11) amplitude =  0.4523
    D(  9) --> V( 14) amplitude = -0.3030
    D(  9) --> V( 17) amplitude =  0.3833
    D( 10) --> V( 16) amplitude =  0.4171

 Excited state 174: excitation energy (eV) =  291.8865
 Total energy for state174:                  -536.48291838 au
    Multiplicity: Singlet
    Trans. Mom.:  0.0001 X  -0.0090 Y  -0.0000 Z
    Strength   :     0.0005854013
    D(  9) --> V( 16) amplitude =  0.4171
    D( 10) --> V( 11) amplitude =  0.4523
    D( 10) --> V( 14) amplitude = -0.3030
    D( 10) --> V( 17) amplitude =  0.3832

 Excited state 175: excitation energy (eV) =  291.9316
 Total energy for state175:                  -536.48126167 au
    Multiplicity: Singlet
    Trans. Mom.: -0.0001 X   0.0039 Y  -0.0001 Z
    Strength   :     0.0001116469
    D(  1) --> V( 11) amplitude =  0.3541
    D(  1) --> V( 12) amplitude =  0.8021
    D(  4) --> V( 12) amplitude = -0.3024

 Excited state 176: excitation energy (eV) =  291.9319
 Total energy for state176:                  -536.48125034 au
    Multiplicity: Singlet
    Trans. Mom.: -0.0072 X  -0.0000 Y  -0.0118 Z
    Strength   :     0.0013660103
    D(  2) --> V( 11) amplitude =  0.3586
    D(  2) --> V( 12) amplitude =  0.8103
    D(  3) --> V( 12) amplitude =  0.2823

 Excited state 177: excitation energy (eV) =  291.9488
 Total energy for state177:                  -536.48062627 au
    Multiplicity: Singlet
    Trans. Mom.: -0.0000 X   0.0007 Y  -0.0000 Z
    Strength   :     0.0000040179
    D(  1) --> V( 12) amplitude =  0.2862
    D(  4) --> V( 12) amplitude =  0.8798

 Excited state 178: excitation energy (eV) =  291.9491
 Total energy for state178:                  -536.48061541 au
    Multiplicity: Singlet
    Trans. Mom.:  0.0098 X   0.0000 Y   0.0092 Z
    Strength   :     0.0012815798
    D(  2) --> V( 12) amplitude = -0.2685
    D(  3) --> V( 12) amplitude =  0.8863

 Excited state 179: excitation energy (eV) =  291.9832
 Total energy for state179:                  -536.47936266 au
    Multiplicity: Singlet
    Trans. Mom.:  0.0072 X   0.0133 Y   0.0079 Z
    Strength   :     0.0020736544
    D(  9) --> V( 12) amplitude = -0.3102
    D( 10) --> V( 11) amplitude =  0.2475
    D( 10) --> V( 12) amplitude =  0.4447
    D( 10) --> V( 15) amplitude =  0.2692
    D( 10) --> V( 17) amplitude = -0.2569
    D( 10) --> V( 18) amplitude = -0.3342
    D( 10) --> V( 19) amplitude =  0.2129

 Excited state 180: excitation energy (eV) =  291.9832
 Total energy for state180:                  -536.47936250 au
    Multiplicity: Singlet
    Trans. Mom.: -0.0056 X   0.0170 Y  -0.0062 Z
    Strength   :     0.0025581264
    D(  9) --> V( 11) amplitude =  0.2475
    D(  9) --> V( 12) amplitude =  0.4447
    D(  9) --> V( 15) amplitude = -0.2692
    D(  9) --> V( 17) amplitude = -0.2569
    D(  9) --> V( 18) amplitude =  0.3342
    D(  9) --> V( 19) amplitude =  0.2130
    D( 10) --> V( 12) amplitude =  0.3102

 Excited state 181: excitation energy (eV) =  292.0081
 Total energy for state181:                  -536.47844898 au
    Multiplicity: Singlet
    Trans. Mom.: -0.0151 X   0.0069 Y   0.0187 Z
    Strength   :     0.0044872703
    D( 13) --> V( 11) amplitude =  0.3784
    D( 13) --> V( 12) amplitude =  0.6122
    D( 13) --> V( 13) amplitude =  0.3095
    D( 13) --> V( 18) amplitude =  0.2591
    D( 13) --> V( 19) amplitude = -0.3172

 Excited state 182: excitation energy (eV) =  292.0081
 Total energy for state182:                  -536.47844879 au
    Multiplicity: Singlet
    Trans. Mom.: -0.0111 X  -0.0094 Y   0.0138 Z
    Strength   :     0.0028822724
    D( 14) --> V( 11) amplitude =  0.3783
    D( 14) --> V( 12) amplitude =  0.6122
    D( 14) --> V( 13) amplitude = -0.3094
    D( 14) --> V( 18) amplitude = -0.2591
    D( 14) --> V( 19) amplitude = -0.3173

 Excited state 183: excitation energy (eV) =  292.0185
 Total energy for state183:                  -536.47806496 au
    Multiplicity: Singlet
    Trans. Mom.:  0.0206 X  -0.0000 Y  -0.0320 Z
    Strength   :     0.0103529096
    D(  6) --> V( 10) amplitude =  0.2158
    D(  6) --> V( 13) amplitude =  0.2266
    D(  8) --> V( 11) amplitude = -0.2584
    D(  8) --> V( 12) amplitude =  0.3987
    D(  8) --> V( 14) amplitude =  0.5386
    D(  8) --> V( 17) amplitude =  0.2451
    D(  8) --> V( 21) amplitude = -0.4192

 Excited state 184: excitation energy (eV) =  292.0299
 Total energy for state184:                  -536.47764789 au
    Multiplicity: Singlet
    Trans. Mom.:  0.0000 X   0.0108 Y  -0.0000 Z
    Strength   :     0.0008375258
    D(  6) --> V( 11) amplitude = -0.2830
    D(  6) --> V( 12) amplitude =  0.3232
    D(  6) --> V( 14) amplitude =  0.5167
    D(  6) --> V( 17) amplitude =  0.2342
    D(  6) --> V( 21) amplitude = -0.4068
    D(  8) --> V( 10) amplitude =  0.2151
    D(  8) --> V( 13) amplitude =  0.3312

 Excited state 185: excitation energy (eV) =  292.0531
 Total energy for state185:                  -536.47679578 au
    Multiplicity: Singlet
    Trans. Mom.: -0.0279 X   0.0002 Y  -0.0132 Z
    Strength   :     0.0068154189
    D(  3) --> V( 11) amplitude = -0.2752
    D(  3) --> V( 14) amplitude =  0.4672
    D(  4) --> V(  7) amplitude = -0.2474
    D(  4) --> V( 13) amplitude =  0.6536

 Excited state 186: excitation energy (eV) =  292.0532
 Total energy for state186:                  -536.47679150 au
    Multiplicity: Singlet
    Trans. Mom.: -0.0006 X  -0.0099 Y  -0.0003 Z
    Strength   :     0.0007061994
    D(  3) --> V(  7) amplitude = -0.2475
    D(  3) --> V( 13) amplitude =  0.6532
    D(  4) --> V( 11) amplitude = -0.2747
    D(  4) --> V( 14) amplitude =  0.4680

 Excited state 187: excitation energy (eV) =  292.0633
 Total energy for state187:                  -536.47641832 au
    Multiplicity: Singlet
    Trans. Mom.:  0.0161 X   0.0015 Y  -0.0062 Z
    Strength   :     0.0021416997
    D(  9) --> V( 12) amplitude =  0.3693
    D(  9) --> V( 14) amplitude =  0.2194
    D(  9) --> V( 17) amplitude =  0.3213
    D(  9) --> V( 19) amplitude =  0.3190
    D( 10) --> V( 10) amplitude =  0.2634
    D( 10) --> V( 13) amplitude =  0.3466
    D( 10) --> V( 20) amplitude =  0.2429

 Excited state 188: excitation energy (eV) =  292.0633
 Total energy for state188:                  -536.47641825 au
    Multiplicity: Singlet
    Trans. Mom.: -0.0039 X   0.0061 Y   0.0015 Z
    Strength   :     0.0003912180
    D(  9) --> V( 10) amplitude =  0.2634
    D(  9) --> V( 13) amplitude =  0.3466
    D(  9) --> V( 20) amplitude =  0.2429
    D( 10) --> V( 12) amplitude =  0.3693
    D( 10) --> V( 14) amplitude =  0.2194
    D( 10) --> V( 17) amplitude =  0.3212
    D( 10) --> V( 19) amplitude =  0.3190

 Excited state 189: excitation energy (eV) =  292.0733
 Total energy for state189:                  -536.47605308 au
    Multiplicity: Singlet
    Trans. Mom.: -0.0162 X  -0.0028 Y   0.0041 Z
    Strength   :     0.0020490430
    D( 14) --> V( 11) amplitude = -0.3462
    D( 14) --> V( 12) amplitude =  0.3913
    D( 14) --> V( 13) amplitude =  0.5191
    D( 14) --> V( 14) amplitude =  0.3778
    D( 14) --> V( 17) amplitude =  0.2259

 Excited state 190: excitation energy (eV) =  292.0733
 Total energy for state190:                  -536.47605291 au
    Multiplicity: Singlet
    Trans. Mom.:  0.0102 X  -0.0044 Y  -0.0026 Z
    Strength   :     0.0009297114
    D( 13) --> V( 11) amplitude =  0.3462
    D( 13) --> V( 12) amplitude = -0.3914
    D( 13) --> V( 13) amplitude =  0.5191
    D( 13) --> V( 14) amplitude = -0.3778
    D( 13) --> V( 17) amplitude = -0.2259

 Excited state 191: excitation energy (eV) =  292.0911
 Total energy for state191:                  -536.47539799 au
    Multiplicity: Singlet
    Trans. Mom.: -0.0133 X   0.0000 Y   0.0465 Z
    Strength   :     0.0167191578
    D(  7) --> V(  9) amplitude =  0.2271
    D(  7) --> V( 14) amplitude =  0.6443
    D(  7) --> V( 21) amplitude = -0.4730
    D(  7) --> V( 24) amplitude =  0.3123

 Excited state 192: excitation energy (eV) =  292.0923
 Total energy for state192:                  -536.47535411 au
    Multiplicity: Singlet
    Trans. Mom.: -0.0000 X   0.0109 Y  -0.0000 Z
    Strength   :     0.0008441127
    D(  6) --> V( 12) amplitude = -0.5177
    D(  8) --> V( 13) amplitude =  0.7343

 Excited state 193: excitation energy (eV) =  292.0995
 Total energy for state193:                  -536.47508892 au
    Multiplicity: Singlet
    Trans. Mom.:  0.0021 X   0.0000 Y   0.0085 Z
    Strength   :     0.0005541439
    D(  6) --> V( 13) amplitude =  0.7709
    D(  8) --> V( 12) amplitude = -0.4523

 Excited state 194: excitation energy (eV) =  292.1050
 Total energy for state194:                  -536.47488885 au
    Multiplicity: Singlet
    Trans. Mom.: -0.0000 X  -0.0041 Y   0.0000 Z
    Strength   :     0.0001184126
    D(  5) --> V(  9) amplitude =  0.2259
    D(  5) --> V( 14) amplitude =  0.6301
    D(  5) --> V( 21) amplitude = -0.4691
    D(  5) --> V( 24) amplitude =  0.3101

 Excited state 195: excitation energy (eV) =  292.1432
 Total energy for state195:                  -536.47348504 au
    Multiplicity: Singlet
    Trans. Mom.:  0.0412 X  -0.0000 Y   0.0064 Z
    Strength   :     0.0124561066
    D( 11) --> V( 17) amplitude = -0.5723
    D( 12) --> V( 13) amplitude =  0.2222
    D( 12) --> V( 15) amplitude = -0.2480
    D( 12) --> V( 16) amplitude = -0.4585
    D( 12) --> V( 18) amplitude =  0.2658

 Excited state 196: excitation energy (eV) =  292.1432
 Total energy for state196:                  -536.47348384 au
    Multiplicity: Singlet
    Trans. Mom.: -0.0009 X  -0.0012 Y  -0.0001 Z
    Strength   :     0.0000166802
    D( 11) --> V( 13) amplitude =  0.2221
    D( 11) --> V( 15) amplitude = -0.2480
    D( 11) --> V( 16) amplitude = -0.4585
    D( 11) --> V( 18) amplitude =  0.2658
    D( 12) --> V( 17) amplitude = -0.5724

 Excited state 197: excitation energy (eV) =  292.1818
 Total energy for state197:                  -536.47206580 au
    Multiplicity: Singlet
    Trans. Mom.:  0.0000 X   0.0081 Y  -0.0000 Z
    Strength   :     0.0004707531
    D(  1) --> V(  9) amplitude =  0.2985
    D(  1) --> V( 12) amplitude =  0.2426
    D(  1) --> V( 14) amplitude =  0.7210
    D(  1) --> V( 21) amplitude = -0.3823

 Excited state 198: excitation energy (eV) =  292.1819
 Total energy for state198:                  -536.47206172 au
    Multiplicity: Singlet
    Trans. Mom.: -0.0193 X   0.0000 Y   0.0215 Z
    Strength   :     0.0059726046
    D(  2) --> V(  9) amplitude =  0.2995
    D(  2) --> V( 12) amplitude =  0.2420
    D(  2) --> V( 14) amplitude =  0.7226
    D(  2) --> V( 21) amplitude = -0.3826

 Excited state 199: excitation energy (eV) =  292.2493
 Total energy for state199:                  -536.46958507 au
    Multiplicity: Singlet
    Trans. Mom.: -0.0376 X  -0.0000 Y  -0.0078 Z
    Strength   :     0.0105492536
    D(  1) --> V( 13) amplitude =  0.8304
    D(  2) --> V( 11) amplitude =  0.3073

 Excited state 200: excitation energy (eV) =  292.2498
 Total energy for state200:                  -536.46956517 au
    Multiplicity: Singlet
    Trans. Mom.:  0.0000 X  -0.0084 Y   0.0000 Z
    Strength   :     0.0005090177
    D(  1) --> V( 11) amplitude =  0.3036
    D(  2) --> V( 13) amplitude =  0.8312
 
 ---------------------------------------------------
  SETman timing summary (seconds)
  CPU time              8491.15s
  System time              0.16s
  Wall time             8501.56s
 
 --------------------------------------------------------------
 
                    Orbital Energies (a.u.)
 --------------------------------------------------------------
 
 Alpha MOs
 -- Occupied --
-10.632 -10.632 -10.629 -10.629 -10.629 -10.628 -10.628 -10.628
-10.626 -10.626 -10.625 -10.625 -10.622 -10.622  -0.893  -0.842
 -0.825  -0.796  -0.768  -0.758  -0.721  -0.669  -0.637  -0.624
 -0.598  -0.593  -0.581  -0.504  -0.497  -0.479  -0.464  -0.462
 -0.442  -0.440  -0.429  -0.426  -0.421  -0.407  -0.400  -0.390
 -0.373  -0.368  -0.362  -0.355  -0.345  -0.342  -0.339  -0.332
 -0.332  -0.329  -0.327  -0.245  -0.229
 -- Virtual --
  0.003   0.006   0.059   0.062   0.077   0.081   0.086   0.093
  0.094   0.105   0.111   0.122   0.135   0.141   0.146   0.149
  0.155   0.158   0.159   0.168   0.171   0.173   0.181   0.184
  0.195   0.215   0.232   0.240   0.240   0.271   0.280   0.281
  0.305   0.324   0.325   0.331   0.341   0.375   0.414   0.415
  0.431   0.431   0.435   0.437   0.443   0.451   0.452   0.467
  0.473   0.482   0.494   0.500   0.517   0.526   0.538   0.543
  0.558   0.587   0.601   0.608   0.627   0.640   0.657   0.662
  0.662   0.665   0.667   0.670   0.673   0.675   0.690   0.691
  0.695   0.703   0.707   0.708   0.709   0.711   0.718   0.721
  0.727   0.727   0.729   0.735   0.741   0.742   0.744   0.753
  0.754   0.758   0.760   0.770   0.778   0.787   0.795   0.822
  0.827   0.836   0.868   0.884   0.914   0.967   0.990   1.021
  1.021   1.022   1.035   1.043   1.046   1.053   1.075   1.106
  1.107   1.200   1.226   1.247   1.269   1.278   1.288   1.296
  1.312   1.312   1.346   1.353   1.365   1.387   1.388   1.403
  1.404   1.416   1.486   1.501   1.510   1.551   1.557   1.570
  1.572   1.651   1.687   1.696   1.725   1.743   1.745   1.779
  1.782   1.783   1.785   1.788   1.791   1.797   1.799   1.806
  1.807   1.819   1.820   1.824   1.826   1.834   1.837   1.846
  1.850   1.855   1.865   1.870   1.878   1.881   1.885   1.900
  1.923   1.942   1.943   1.949   1.950   1.955   1.956   1.965
  1.967   1.994   2.021   2.022   2.032   2.039   2.042   2.070
  2.074   2.104   2.125   2.131   2.144   2.157   2.179   2.186
  2.242   2.249   2.254   2.306   2.324   2.340   2.354   2.357
  2.374   2.391   2.393   2.398   2.442   2.449   2.456   2.463
  2.474   2.480   2.496   2.502   2.520   2.565   2.575   2.589
  2.611   2.626   2.644   2.654   2.659   2.664   2.677   2.704
  2.706   2.712   2.740   2.789   2.836   2.841   2.914   2.921
  2.935   2.940   2.950   2.953   2.962   2.967   2.994   3.006
  3.026   3.047   3.053   3.092   3.097   3.115   3.124   3.146
  3.148   3.179   3.202   3.339   3.674
 --------------------------------------------------------------
 
          Ground-State Mulliken Net Atomic Charges

     Atom                 Charge (a.u.)
  ----------------------------------------
      1 C                     0.027916
      2 C                    -0.024059
      3 C                    -0.016557
      4 C                     0.117329
      5 C                    -0.063841
      6 C                    -0.003957
      7 H                    -0.021469
      8 C                    -0.003957
      9 H                    -0.021469
     10 C                    -0.063841
     11 C                    -0.004639
     12 H                    -0.023604
     13 C                    -0.004639
     14 H                    -0.023604
     15 H                     0.010178
     16 H                     0.008045
     17 H                     0.007579
     18 H                    -0.000300
     19 H                    -0.001405
     20 H                    -0.001777
     21 H                    -0.001152
     22 H                    -0.008480
     23 H                     0.000194
     24 H                    -0.008480
     25 C                     0.117330
     26 H                     0.000195
     27 C                    -0.016558
     28 C                    -0.024060
     29 C                     0.027916
     30 H                    -0.001152
     31 H                    -0.001777
     32 H                    -0.001405
     33 H                    -0.000300
     34 H                     0.007579
     35 H                     0.010178
     36 H                     0.008045
  ----------------------------------------
  Sum of atomic charges =    -0.000000

 -----------------------------------------------------------------
                    Cartesian Multipole Moments
 -----------------------------------------------------------------
    Charge (ESU x 10^10)
                -0.0000
    Dipole Moment (Debye)
         X      -0.0000      Y      -0.0662      Z       0.0000
       Tot       0.0662
    Quadrupole Moments (Debye-Ang)
        XX     -85.5239     XY       0.0000     YY     -85.4183
        XZ       2.5152     YZ      -0.0001     ZZ     -92.2654
    Octopole Moments (Debye-Ang^2)
       XXX      -0.0000    XXY       3.0683    XYY      -0.0001
       YYY       1.3974    XXZ      -0.0001    XYZ      -1.5035
       YYZ      -0.0000    XZZ       0.0001    YZZ      -0.8537
       ZZZ       0.0001
    Hexadecapole Moments (Debye-Ang^3)
      XXXX   -7865.6764   XXXY       0.0012   XXYY   -1363.7647
      XYYY       0.0002   YYYY    -428.2313   XXXZ      52.2758
      XXYZ      -0.0007   XYYZ       5.7913   YYYZ      -0.0002
      XXZZ   -1378.6212   XYZZ      -0.0001   YYZZ    -132.8933
      XZZZ       1.3302   YZZZ      -0.0002   ZZZZ    -343.0710
 -----------------------------------------------------------------
Archival summary:
1\1\n0144.vulcan0\SP\ProcedureUnspecified\BasisUnspecified\1422\jhansonm\FriJan1719:44:362020FriJan1719:44:362020\0\\#,ProcedureUnspecified,BasisUnspecified,\\0,1\C\C,1,1.39765\H,2,1.0943,1,119.379\C,2,1.39483,1,121.229,3,-179.763,0\H,4,1.0943,2,119.392,1,179.824,0\C,4,1.39765,2,121.229,1,-0.412601,0\C,6,1.40128,4,117.539,2,0.250939,0\H,7,1.09452,6,119.42,4,-179.864,0\C,7,1.39092,6,121.232,4,0.0549918,0\H,9,1.09452,7,119.348,6,179.71,0\C,6,1.50587,4,121.627,2,178.643,0\H,11,1.10286,6,109.408,4,19.2157,0\H,11,1.10436,6,109.321,4,135.065,0\C,1,1.50587,2,121.627,3,-1.59339,0\H,14,1.10286,1,109.408,2,19.2142,0\H,14,1.10436,1,109.321,2,135.063,0\C,14,1.52941,1,113.532,2,-103.091,0\H,17,1.1046,14,109.11,1,58.0616,0\H,17,1.10477,14,109.133,1,-56.8496,0\C,17,1.52322,14,113.518,1,-179.269,0\H,20,1.10466,17,109.198,14,-58.2343,0\H,20,1.10484,17,109.071,14,56.6831,0\C,20,1.52074,17,113.478,14,179.163,0\H,23,1.10081,20,111.649,17,179.879,0\H,23,1.10206,20,111.301,17,-59.9554,0\H,23,1.10213,20,111.339,17,59.691,0\C,11,1.52941,6,113.532,4,-103.09,0\H,27,1.1046,11,109.11,6,58.0617,0\H,27,1.10477,11,109.133,6,-56.8495,0\C,27,1.52322,11,113.518,6,-179.269,0\H,30,1.10466,27,109.198,11,-58.234,0\H,30,1.10484,27,109.071,11,56.6834,0\C,30,1.52074,27,113.478,11,179.163,0\H,33,1.10081,30,111.649,27,179.879,0\H,33,1.10206,30,111.301,27,-59.9554,0\H,33,1.10213,30,111.339,27,59.691,0\\\@

 Total job time:  8569.50s(wall), 8553.41s(cpu) 
 Fri Jan 17 19:44:36 2020

        *************************************************************
        *                                                           *
        *  Thank you very much for using Q-Chem.  Have a nice day.  *
        *                                                           *
        *************************************************************


0 sent ACK to 0 
now end server 0 ... 
cleanup process ... done
