
Running Job 1 of 1 input
qchem input_27141.0 /scratch/qchem27141/ 0
/home/epif/aimm/qcprog.exe_s input_27141.0 /scratch/qchem27141/
8388608
                  Welcome to Q-Chem
     A Quantum Leap Into The Future Of Chemistry


 Q-Chem 5.2, Q-Chem, Inc., Pleasanton, CA (2019)

 Yihan Shao,  Zhengting Gan,  E. Epifanovsky,  A. T. B. Gilbert,  M. Wormit,  
 J. Kussmann,  A. W. Lange,  A. Behn,  Jia Deng,  Xintian Feng,  D. Ghosh,  
 M. Goldey,  P. R. Horn,  L. D. Jacobson,  I. Kaliman,  T. Kus,  A. Landau,  
 Jie Liu,  E. I. Proynov,  R. M. Richard,  R. P. Steele,  E. J. Sundstrom,  
 H. L. Woodcock III,  P. M. Zimmerman,  D. Zuev,  B. Albrecht,  E. Alguire,  
 S. A. Baeppler,  D. Barton,  Z. Benda,  Y. A. Bernard,  E. J. Berquist,  
 K. B. Bravaya,  H. Burton,  D. Casanova,  Chun-Min Chang,  Yunqing Chen,  
 A. Chien,  K. D. Closser,  M. P. Coons,  S. Coriani,  S. Dasgupta,  
 A. L. Dempwolff,  M. Diedenhofen,  Hainam Do,  R. G. Edgar,  Po-Tung Fang,  
 S. Faraji,  S. Fatehi,  Qingguo Feng,  K. D. Fenk,  J. Fosso-Tande,  
 J. Gayvert,  Qinghui Ge,  A. Ghysels,  G. Gidofalvi,  J. Gomes,  
 J. Gonthier,  A. Gunina,  D. Hait,  M. W. D. Hanson-Heine,  
 P. H. P. Harbach,  A. W. Hauser,  M. F. Herbst,  J. E. Herr,  
 E. G. Hohenstein,  Z. C. Holden,  Kerwin Hui,  B. C. Huynh,  T.-C. Jagau,  
 Hyunjun Ji,  B. Kaduk,  K. Khistyaev,  Jaehoon Kim,  P. Klunzinger,  K. Koh,  
 D. Kosenkov,  L. Koulias,  T. Kowalczyk,  C. M. Krauter,  A. Kunitsa,  
 Ka Un Lao,  A. Laurent,  K. V. Lawler,  Joonho Lee,  D. Lefrancois,  
 S. Lehtola,  D. S. Levine,  Yi-Pei Li,  You-Sheng Lin,  Fenglai Liu,  
 E. Livshits,  A. Luenser,  P. Manohar,  E. Mansoor,  S. F. Manzer,  
 Shan-Ping Mao,  Yuezhi Mao,  N. Mardirossian,  A. V. Marenich,  
 T. Markovich,  L. A. Martinez-Martinez,  S. A. Maurer,  N. J. Mayhall,  
 S. C. McKenzie,  J.-M. Mewes,  P. Morgante,  A. F. Morrison,  
 J. W. Mullinax,  K. Nanda,  T. S. Nguyen-Beck,  R. Olivares-Amaya,  
 J. A. Parkhill,  Zheng Pei,  T. M. Perrine,  F. Plasser,  P. Pokhilko,  
 S. Prager,  A. Prociuk,  E. Ramos,  D. R. Rehn,  F. Rob,  M. Scheurer,  
 M. Schneider,  N. Sergueev,  S. M. Sharada,  S. Sharma,  D. W. Small,  
 T. Stauch,  T. Stein,  Yu-Chuan Su,  A. J. W. Thom,  A. Tkatchenko,  
 T. Tsuchimochi,  N. M. Tubman,  L. Vogt,  M. L. Vidal,  O. Vydrov,  
 M. A. Watson,  J. Wenzel,  M. de Wergifosse,  T. A. Wesolowski,  A. White,  
 J. Witte,  A. Yamada,  Jun Yang,  K. Yao,  S. Yeganeh,  S. R. Yost,  
 Zhi-Qiang You,  A. Zech,  Igor Ying Zhang,  Xing Zhang,  Yan Zhao,  
 Ying Zhu,  B. R. Brooks,  G. K. L. Chan,  C. J. Cramer,  M. S. Gordon,  
 W. J. Hehre,  A. Klamt,  M. W. Schmidt,  C. D. Sherrill,  D. G. Truhlar,  
 A. Aspuru-Guzik,  R. Baer,  A. T. Bell,  N. A. Besley,  Jeng-Da Chai,  
 A. E. DePrince, III,  R. A. DiStasio Jr.,  A. Dreuw,  B. D. Dunietz,  
 T. R. Furlani,  Chao-Ping Hsu,  Yousung Jung,  Jing Kong,  D. S. Lambrecht,  
 WanZhen Liang,  C. Ochsenfeld,  V. A. Rassolov,  L. V. Slipchenko,  
 J. E. Subotnik,  T. Van Voorhis,  J. M. Herbert,  A. I. Krylov,  
 P. M. W. Gill,  M. Head-Gordon

 Contributors to earlier versions of Q-Chem not listed above: 
 R. D. Adamson,  B. Austin,  J. Baker,  G. J. O. Beran,  K. Brandhorst,  
 S. T. Brown,  E. F. C. Byrd,  A. K. Chakraborty,  C.-L. Cheng,  
 Siu Hung Chien,  D. M. Chipman,  D. L. Crittenden,  H. Dachsel,  
 R. J. Doerksen,  A. D. Dutoi,  L. Fusti-Molnar,  W. A. Goddard III,  
 A. Golubeva-Zadorozhnaya,  S. R. Gwaltney,  G. Hawkins,  A. Heyden,  
 S. Hirata,  G. Kedziora,  F. J. Keil,  C. Kelley,  Jihan Kim,  R. A. King,  
 R. Z. Khaliullin,  P. P. Korambath,  W. Kurlancheek,  A. M. Lee,  M. S. Lee,  
 S. V. Levchenko,  Ching Yeh Lin,  D. Liotard,  R. C. Lochan,  I. Lotan,  
 P. E. Maslen,  N. Nair,  D. P. O'Neill,  D. Neuhauser,  E. Neuscamman,  
 C. M. Oana,  R. Olson,  B. Peters,  R. Peverati,  P. A. Pieniazek,  
 Y. M. Rhee,  J. Ritchie,  M. A. Rohrdanz,  E. Rosta,  N. J. Russ,  
 H. F. Schaefer III,  N. E. Schultz,  N. Shenvi,  A. C. Simmonett,  A. Sodt,  
 D. Stuck,  K. S. Thanthiriwatte,  V. Vanovschi,  Tao Wang,  A. Warshel,  
 C. F. Williams,  Q. Wu,  X. Xu,  W. Zhang

 Please cite Q-Chem as follows:
 Y. Shao et al., Mol. Phys. 113, 184-215 (2015)
 DOI: 10.1080/00268976.2014.952696

 Q-Chem 5.2.1 for Intel X86 EM64T Linux

 Parts of Q-Chem use Armadillo 8.300.2 (Tropical Shenanigans).
 http://arma.sourceforge.net/

 Q-Chem begins on Tue Dec 17 15:20:44 2019  

Host: iqmol
0

     Scratch files written to /scratch/qchem27141//
 Jul1719 |scratch|qcdevops|jenkins|workspace|build_RNUM 6466   
Processing $rem in /opt/qchem/qc521/config/preferences:
	 MEM_TOTAL  2000 
NAlpha2: 106
NElect   105
Mult     2

Checking the input file for inconsistencies... 	...done.

--------------------------------------------------------------
User input:
--------------------------------------------------------------
$molecule
-1 2
N    1.4203982   -0.4376306   -0.5329729
C    0.4365997    0.3308159   -0.0013080
O    0.5877394    1.5413635    0.0843008
C   -0.8424473   -0.2920880    0.4964540
C   -2.0547973    0.2526489   -0.2685198
C   -3.3549653   -0.3750625    0.2479200
O    2.5590002    0.1172401   -0.9748634
H    1.3006495   -1.4588779   -0.6099938
H   -0.9485928   -0.0664413    1.5798062
H   -0.8035688   -1.3965720    0.3738043
H   -1.9385302    0.0231719   -1.3510105
H   -2.1070288    1.3565441   -0.1400060
H   -3.3075273   -1.4788678    0.1174027
H   -3.4645172   -0.1474011    1.3313709
H    3.1935416    0.0373324   -0.2169024
C   -4.5725701    0.1721125   -0.5066782
C   -5.8692294   -0.4526642    0.0221639
C   -7.0925815    0.0982534   -0.7199711
C   -8.3861427   -0.5239716   -0.1804955
C   -9.6125084    0.0294042   -0.9149412
C  -10.9005861   -0.5863741   -0.3759369
H   -4.4682851   -0.0564016   -1.5904178
H   -4.6182997    1.2759900   -0.3763828
H   -5.9679413   -0.2257415    1.1068075
H   -5.8255865   -1.5564549   -0.1097756
H   -6.9986249   -0.1295255   -1.8048114
H   -7.1345285    1.2021305   -0.5882822
H   -8.4768688   -0.2970153    0.9048807
H   -8.3458400   -1.6278468   -0.3129855
H   -9.5325165   -0.1976668   -2.0004418
H   -9.6605105    1.1325018   -0.7835352
H  -10.8892094   -1.6885620   -0.5142932
H  -11.7711725   -0.1681421   -0.9237016
H  -11.0162259   -0.3554746    0.7045988
$end

$rem
BASIS  =  def2-SVP
GUI  =  2
JOB_TYPE  =  Force
METHOD  =  PBE0
SCF_CONVERGENCE  =  8
$end

--------------------------------------------------------------
 ----------------------------------------------------------------
             Standard Nuclear Orientation (Angstroms)
    I     Atom           X                Y                Z
 ----------------------------------------------------------------
    1      N      -5.1489657119    -0.5310599272     0.5287034254
    2      C      -4.2153608666     0.0847826444    -0.2395133394
    3      O      -4.4293620052     1.2066223667    -0.6768652771
    4      C      -2.9156120740    -0.6028268293    -0.5705477686
    5      C      -1.7187480454     0.1974383213    -0.0425251240
    6      C      -0.3980057514    -0.4994314133    -0.3906355415
    7      O      -6.3060370572     0.0810309253     0.8221210666
    8      H      -4.9760866431    -1.4763694965     0.9024956990
    9      H      -2.8408671079    -0.7072000040    -1.6747917272
   10      H      -2.8960657132    -1.6206618143    -0.1232567267
   11      H      -1.8034209194     0.2974669017     1.0623679184
   12      H      -1.7250380254     1.2135328180    -0.4956707396
   13      H      -0.3868972564    -1.5146346121     0.0642384369
   14      H      -0.3199635426    -0.6017669720    -1.4956848760
   15      H      -6.9494297154    -0.2491672610     0.1434842333
   16      C       0.8037920835     0.3002806189     0.1265907172
   17      C       2.1206552321    -0.3976522814    -0.2341118564
   18      C       3.3277742482     0.4021469258     0.2699217038
   19      C       4.6412200085    -0.2966674971    -0.1015848086
   20      C       5.8510829225     0.5033047730     0.3942822994
   21      C       7.1587341718    -0.1894594165     0.0214838293
   22      H       0.7310576945     0.4021164111     1.2319977716
   23      H       0.7909780631     1.3155454757    -0.3280373660
   24      H       2.1878890218    -0.5015153617    -1.3397256081
   25      H       2.1355785127    -1.4122528098     0.2219908810
   26      H       3.2653359229     0.5054573634     1.3758231260
   27      H       3.3111577262     1.4168317709    -0.1859123949
   28      H       4.7004645673    -0.4010614263    -1.2076471363
   29      H       4.6594929604    -1.3110401360     0.3549593990
   30      H       5.8025650025     0.6080886308     1.5001475038
   31      H       5.8405574444     1.5175918228    -0.0612471163
   32      H       7.2059122727    -1.1992238534     0.4821790330
   33      H       8.0167965786     0.4105348796     0.3911060730
   34      H       7.2427440628    -0.2875742477    -1.0819473464
 ----------------------------------------------------------------
 Molecular Point Group                 C1    NOp =  1
 Largest Abelian Subgroup              C1    NOp =  1
 Nuclear Repulsion Energy =         760.01295087 hartrees
 There are       53 alpha and       52 beta electrons
 Requested basis set is def2-SVP
 There are 141 shells and 287 basis functions

 Total QAlloc Memory Limit   2000 MB
 Mega-Array Size       188 MB
 MEM_STATIC part       192 MB
 A cutoff of  1.0D-11 yielded   6472 shell pairs
 There are     24992 function pairs (     27145 Cartesian)
 Smallest overlap matrix eigenvalue = 7.79E-04

 Scale SEOQF with 1.000000e-02/1.000000e-01/1.000000e-01

 Standard Electronic Orientation quadrupole field applied
 Nucleus-field energy     =     0.0000000066 hartrees
 Guess from superposition of atomic densities
 Warning:  Energy on first SCF cycle will be non-variational
 SAD guess density has 104.000000 electrons

 -----------------------------------------------------------------------
  General SCF calculation program by
  Eric Jon Sundstrom, Paul Horn, Yuezhi Mao, Dmitri Zuev, Alec White,
  David Stuck, Shaama M.S., Shane Yost, Joonho Lee, David Small,
  Daniel Levine, Susi Lehtola, Hugh Burton, Evgeny Epifanovsky,
  Bang C. Huynh
 -----------------------------------------------------------------------
 Exchange:     0.2500 Hartree-Fock + 0.7500 PBE
 Correlation:  1.0000 PBE
 Using SG-1 standard quadrature grid
 A unrestricted SCF calculation will be
 performed using DIIS
 SCF converges when DIIS error is below 1.0e-08
 ---------------------------------------
  Cycle       Energy         DIIS error
 ---------------------------------------
    1    -600.1818797024      2.13e-02  
    2    -597.2328408584      2.96e-03  
    3    -594.0310055988      6.61e-03  
    4    -597.4002812950      2.32e-03  
    5    -597.6036034249      6.87e-04  
    6    -597.5635780678      9.47e-04  
    7    -597.5874744865      7.25e-04  
    8    -597.6280800291      3.62e-04  
    9    -597.6153849696      5.10e-04  
   10    -597.6475873716      7.80e-05  
   11    -597.6467401087      1.14e-04  
   12    -597.6473411441      9.69e-05  
   13    -597.6472145710      1.02e-04  
   14    -597.6467999735      1.18e-04  
   15    -597.6467309515      1.20e-04  
   16    -597.6471677799      1.01e-04  
   17    -597.6477425746      6.98e-05  
   18    -597.6481799545      2.79e-05  
   19    -597.6482677258      2.10e-06  
   20    -597.6482695110      2.18e-06  
   21    -597.6482705557      1.74e-06  
   22    -597.6482714201      1.31e-06  
   23    -597.6482715644      1.94e-06  
   24    -597.6482721404      3.60e-07  
   25    -597.6482721833      2.30e-07  
   26    -597.6482721872      1.62e-07  
   27    -597.6482721906      2.56e-08  
   28    -597.6482721907      1.65e-08  
   29    -597.6482721907      8.47e-09  Convergence criterion met
 ---------------------------------------
 SCF time:   CPU 384.58s  wall 384.00s 
<S^2> =          0.752175152
 SCF   energy in the final basis set =     -597.6482721907
 Total energy in the final basis set =     -597.6482721907
 
 --------------------------------------------------------------
 
                    Orbital Energies (a.u.)
 --------------------------------------------------------------
 
 Alpha MOs
 -- Occupied --
-19.1099 -18.9890 -14.3039 -10.1435 -10.1266 -10.1247 -10.1178 -10.1166
-10.1137 -10.1117 -10.1050 -10.1013 -10.0993  -0.9844  -0.8642  -0.7188
 -0.7110  -0.6953  -0.6638  -0.6224  -0.5728  -0.5219  -0.4838  -0.4750
 -0.4660  -0.4564  -0.4397  -0.3914  -0.3709  -0.3578  -0.3465  -0.3405
 -0.3296  -0.3159  -0.3059  -0.3025  -0.2787  -0.2742  -0.2588  -0.2548
 -0.2434  -0.2402  -0.2318  -0.2287  -0.2238  -0.2204  -0.2147  -0.2085
 -0.1910  -0.1830  -0.1122  -0.0948   0.1332
 -- Virtual --
  0.1486   0.1668   0.1742   0.1820   0.1884   0.1890   0.1976   0.2084
  0.2134   0.2285   0.2402   0.2430   0.2517   0.2590   0.2714   0.2781
  0.2821   0.2888   0.2943   0.3094   0.3136   0.3192   0.3244   0.3303
  0.3403   0.3592   0.3632   0.3727   0.4054   0.4237   0.4414   0.4952
  0.5124   0.5335   0.5381   0.5521   0.5538   0.5647   0.5709   0.5778
  0.5839   0.6039   0.6266   0.6385   0.6518   0.6531   0.6785   0.6993
  0.7218   0.7347   0.7485   0.7500   0.7549   0.7610   0.7631   0.7684
  0.7718   0.7767   0.7858   0.7889   0.7914   0.7925   0.7974   0.7983
  0.8046   0.8072   0.8125   0.8144   0.8268   0.8278   0.8334   0.8357
  0.8452   0.8506   0.8541   0.8556   0.8601   0.8647   0.8663   0.8721
  0.9079   0.9285   0.9541   0.9872   1.0365   1.0609   1.0669   1.0917
  1.1118   1.1147   1.1275   1.1460   1.1579   1.1627   1.1710   1.1753
  1.1851   1.1937   1.1967   1.2261   1.2627   1.2977   1.3179   1.3274
  1.3822   1.4034   1.4176   1.4494   1.4521   1.4594   1.4684   1.4821
  1.4889   1.4973   1.5109   1.5128   1.5217   1.5481   1.6010   1.6098
  1.6307   1.6363   1.7132   1.7460   1.7983   1.8093   1.8174   1.8296
  1.8400   1.8593   1.8678   1.8684   1.8724   1.8773   1.8980   1.9015
  1.9073   1.9139   1.9215   1.9278   1.9318   1.9360   1.9392   1.9415
  1.9472   1.9519   1.9527   1.9608   1.9675   1.9745   1.9887   1.9952
  2.0123   2.0222   2.0305   2.0401   2.0566   2.0632   2.0769   2.0891
  2.0952   2.1031   2.1139   2.1480   2.1725   2.1785   2.1886   2.2098
  2.2186   2.2391   2.2497   2.2792   2.3048   2.3457   2.3501   2.3905
  2.4011   2.4236   2.4408   2.4793   2.4994   2.5075   2.5094   2.5141
  2.5303   2.5372   2.5607   2.5738   2.5967   2.6042   2.6222   2.6569
  2.6689   2.6726   2.6942   2.7092   2.7194   2.7259   2.7290   2.7466
  2.7756   2.8292   2.8337   2.9048   2.9211   2.9272   2.9519   2.9635
  2.9735   2.9810   2.9901   3.0066   3.0356   3.0486   3.0611   3.0743
  3.0941   3.1072   3.1151   3.1546   3.1577   3.1839   3.1915   3.2241
  3.2272   3.2395   3.2571   3.2860   3.3664   3.4002   3.6093   3.7450
  3.8398   3.9330
 
 Beta MOs
 -- Occupied --
-19.1089 -18.9864 -14.3029 -10.1400 -10.1260 -10.1242 -10.1173 -10.1164
-10.1134 -10.1115 -10.1045 -10.1007 -10.0993  -0.9812  -0.8591  -0.7179
 -0.7077  -0.6944  -0.6628  -0.6212  -0.5710  -0.5197  -0.4810  -0.4727
 -0.4638  -0.4541  -0.4369  -0.3903  -0.3699  -0.3539  -0.3448  -0.3393
 -0.3278  -0.3144  -0.3042  -0.3008  -0.2769  -0.2721  -0.2561  -0.2517
 -0.2423  -0.2382  -0.2296  -0.2274  -0.2223  -0.2183  -0.2121  -0.2040
 -0.1889  -0.1805  -0.1018  -0.0923
 -- Virtual --
  0.1617   0.1744   0.1805   0.1865   0.1895   0.1940   0.2017   0.2075
  0.2139   0.2189   0.2341   0.2445   0.2466   0.2557   0.2626   0.2736
  0.2817   0.2848   0.2912   0.2975   0.3113   0.3164   0.3213   0.3266
  0.3345   0.3425   0.3621   0.3654   0.3764   0.4078   0.4272   0.4441
  0.4973   0.5140   0.5350   0.5407   0.5536   0.5557   0.5664   0.5728
  0.5792   0.5859   0.6057   0.6297   0.6413   0.6538   0.6548   0.6814
  0.7068   0.7295   0.7391   0.7530   0.7534   0.7573   0.7629   0.7655
  0.7699   0.7741   0.7780   0.7882   0.7906   0.7932   0.7949   0.7996
  0.8000   0.8064   0.8091   0.8143   0.8162   0.8284   0.8302   0.8356
  0.8386   0.8468   0.8533   0.8559   0.8574   0.8624   0.8660   0.8679
  0.8741   0.9098   0.9310   0.9573   0.9889   1.0394   1.0631   1.0684
  1.0937   1.1132   1.1160   1.1292   1.1476   1.1594   1.1637   1.1723
  1.1783   1.1873   1.1961   1.1977   1.2269   1.2674   1.3023   1.3192
  1.3298   1.3842   1.4054   1.4195   1.4508   1.4544   1.4623   1.4692
  1.4835   1.4900   1.4991   1.5119   1.5139   1.5233   1.5508   1.6045
  1.6163   1.6317   1.6411   1.7164   1.7508   1.8011   1.8103   1.8183
  1.8304   1.8410   1.8606   1.8691   1.8697   1.8734   1.8790   1.8996
  1.9031   1.9084   1.9157   1.9229   1.9294   1.9329   1.9368   1.9403
  1.9426   1.9486   1.9543   1.9566   1.9619   1.9690   1.9764   1.9907
  1.9969   2.0141   2.0235   2.0314   2.0417   2.0580   2.0646   2.0778
  2.0906   2.0964   2.1043   2.1148   2.1498   2.1739   2.1806   2.1901
  2.2128   2.2199   2.2436   2.2510   2.2820   2.3171   2.3472   2.3514
  2.3939   2.4033   2.4278   2.4428   2.4811   2.5011   2.5087   2.5111
  2.5155   2.5319   2.5386   2.5622   2.5753   2.5976   2.6063   2.6235
  2.6585   2.6702   2.6742   2.6954   2.7107   2.7211   2.7275   2.7298
  2.7491   2.7762   2.8328   2.8355   2.9100   2.9243   2.9292   2.9546
  2.9668   2.9756   2.9825   2.9924   3.0085   3.0371   3.0500   3.0624
  3.0757   3.0969   3.1095   3.1166   3.1556   3.1591   3.1853   3.1927
  3.2250   3.2283   3.2404   3.2618   3.2882   3.3695   3.4068   3.6118
  3.7471   3.8434   3.9356
 --------------------------------------------------------------
 
          Ground-State Mulliken Net Atomic Charges

     Atom                 Charge (a.u.)    Spin (a.u.)
  --------------------------------------------------------
      1 N                    -0.071538       0.018737
      2 C                     0.058088       0.194053
      3 O                    -0.358284       0.076822
      4 C                     0.005185      -0.015309
      5 C                    -0.033288      -0.027523
      6 C                    -0.017135      -0.006836
      7 O                    -0.215301      -0.024310
      8 H                     0.107052       0.001955
      9 H                    -0.043494       0.091350
     10 H                    -0.053106       0.029243
     11 H                    -0.015483       0.030500
     12 H                     0.033928       0.003789
     13 H                    -0.029644       0.040035
     14 H                    -0.026522       0.044269
     15 H                     0.030907       0.189560
     16 C                    -0.034439      -0.005971
     17 C                    -0.033391      -0.002749
     18 C                    -0.028219      -0.004101
     19 C                    -0.023294      -0.023109
     20 C                    -0.043419      -0.025767
     21 C                     0.001862      -0.046617
     22 H                     0.001920       0.011604
     23 H                     0.003845       0.013516
     24 H                    -0.005502       0.022829
     25 H                    -0.011889       0.028078
     26 H                    -0.009392       0.024350
     27 H                    -0.006911       0.022799
     28 H                    -0.031997       0.051288
     29 H                    -0.033573       0.052558
     30 H                    -0.027571       0.049394
     31 H                    -0.025423       0.047464
     32 H                    -0.021778       0.049311
     33 H                    -0.021477       0.040365
     34 H                    -0.020716       0.048422
  --------------------------------------------------------
  Sum of atomic charges =    -1.000000
  Sum of spin   charges =     1.000000

 -----------------------------------------------------------------
                    Cartesian Multipole Moments
 -----------------------------------------------------------------
    Charge (ESU x 10^10)
                -4.8032
    Dipole Moment (Debye)
         X       3.9670      Y      -3.2799      Z       0.9858
       Tot       5.2409
    Quadrupole Moments (Debye-Ang)
        XX    -205.0758     XY      19.8831     YY     -93.5146
        XZ      -2.1892     YZ      -0.3195     ZZ     -93.0643
    Octopole Moments (Debye-Ang^2)
       XXX     -98.3072    XXY     -90.5218    XYY     -20.5998
       YYY      -0.8545    XXZ     -13.3884    XYZ      -2.2784
       YYZ       6.6134    XZZ     -15.5310    YZZ       0.0401
       ZZZ       5.6296
    Hexadecapole Moments (Debye-Ang^3)
      XXXX  -14137.7614   XXXY     514.5692   XXYY   -1814.6088
      XYYY      22.7916   YYYY    -326.3222   XXXZ      98.6256
      XXYZ      -4.7551   XYYZ     -35.2082   YYYZ      -9.2301
      XXZZ   -1837.5400   XYZZ       6.4587   YYZZ    -101.0715
      XZZZ     -26.2574   YZZZ      -6.9653   ZZZZ    -277.8808
 -----------------------------------------------------------------
 Calculating analytic gradient of the SCF energy
 Gradient of SCF Energy
            1           2           3           4           5           6
    1  -0.0147624  -0.0172760   0.0022166   0.0168122  -0.0062980   0.0019811
    2   0.0334165  -0.0063918  -0.0295725   0.0050589   0.0092214  -0.0154384
    3  -0.0287539   0.0184335   0.0122555  -0.0207349   0.0099609  -0.0081052
            7           8           9          10          11          12
    1   0.0077424   0.0058484  -0.0045186  -0.0025437   0.0007505   0.0034703
    2   0.0103065  -0.0126099  -0.0010582  -0.0002821  -0.0013068   0.0056486
    3  -0.0018481   0.0019020   0.0046066   0.0030793   0.0057378  -0.0049212
           13          14          15          16          17          18
    1  -0.0008290   0.0012051   0.0115944  -0.0018480   0.0017593  -0.0011895
    2  -0.0013539   0.0025281  -0.0058792   0.0143791  -0.0143458   0.0134431
    3   0.0029739  -0.0042359   0.0055158   0.0080202  -0.0076327   0.0078336
           19          20          21          22          23          24
    1   0.0025367  -0.0033204  -0.0018183  -0.0003560   0.0004609   0.0000531
    2  -0.0149794   0.0107618  -0.0049723  -0.0024749   0.0036020   0.0019983
    3  -0.0083799   0.0061952  -0.0027573   0.0055527  -0.0046930  -0.0046410
           25          26          27          28          29          30
    1  -0.0001686  -0.0004040   0.0000743  -0.0003615  -0.0007311   0.0013314
    2  -0.0028769  -0.0017968   0.0033364   0.0016829  -0.0024004  -0.0017511
    3   0.0037045   0.0047454  -0.0041319  -0.0038014   0.0031510   0.0037366
           31          32          33          34
    1   0.0015476  -0.0012619  -0.0006942  -0.0010030
    2   0.0024459  -0.0029322   0.0040278   0.0005652
    3  -0.0034177   0.0022795   0.0023013  -0.0039314
 Max gradient component =       3.342E-02
 RMS gradient           =       8.571E-03
 Gradient time:  CPU 35.73 s  wall 35.69 s
Archival summary:
1\1\iqmol\JobtypUnspecified\ProcedureUnspecified\BasisUnspecified\211021(1-,2)\epif\TueDec1715:27:442019TueDec1715:27:442019\0\\#,JobtypUnspecified,ProcedureUnspecified,BasisUnspecified,\\-1,2\O\C,1,1.22295\N,2,1.35685,1,119.896\H,3,1.03112,2,120.397,1,-179.92,0\O,3,1.34148,2,120.679,1,-0.379661,0\H,5,0.991732,3,104.95,2,95.4173,0\C,2,1.50723,1,119.396,3,179.573,0\H,7,1.11168,2,108.601,1,-59.9168,0\H,7,1.11195,2,110.145,1,-178.251,0\C,7,1.53353,2,111.059,1,60.9036,0\H,10,1.11258,7,109.387,2,-59.155,0\H,10,1.11264,7,109.235,2,59.8072,0\C,10,1.53335,7,110.911,2,-179.558,0\H,13,1.11251,10,109.299,7,-59.6418,0\H,13,1.11252,10,109.131,7,59.1752,0\C,13,1.53342,10,111.191,7,179.631,0\H,16,1.11247,13,109.37,10,59.7301,0\H,16,1.11248,13,109.213,10,-59.1979,0\C,16,1.53341,13,110.876,10,-179.592,0\H,19,1.1125,16,109.28,13,-59.7367,0\H,19,1.11252,16,109.157,13,59.0837,0\C,19,1.53325,16,111.184,13,179.536,0\H,22,1.11247,19,109.332,16,59.6979,0\H,22,1.1125,19,109.227,16,-59.2173,0\C,22,1.53346,19,110.915,16,-179.648,0\H,25,1.11253,22,109.278,19,-59.6413,0\H,25,1.11256,22,109.222,19,59.2209,0\C,25,1.53284,22,111.091,19,179.712,0\H,28,1.11188,25,109.663,22,59.7693,0\H,28,1.11193,25,109.637,22,-59.5393,0\C,28,1.52606,25,111.124,22,-179.838,0\H,31,1.11035,28,109.607,25,179.948,0\H,31,1.1109,28,110.347,25,-60.3989,0\H,31,1.11097,28,110.336,25,60.3309,0\\\@

 Total job time:  420.37s(wall), 420.77s(cpu) 
 Tue Dec 17 15:27:44 2019

        *************************************************************
        *                                                           *
        *  Thank you very much for using Q-Chem.  Have a nice day.  *
        *                                                           *
        *************************************************************


