
Running Job 1 of 2 PBE0.def2-QZVPD.in
qchem PBE0.def2-QZVPD.in_17692.0 ./QC_SCR/temp/ 4
mpirun -f ./temphostfile -n 4 /global/home/groups-sw/nano/software/sl-7.x86_64/qchem/5.1.2/exe/qcprog.exe PBE0.def2-QZVPD.in_17692.0 ./QC_SCR/temp/

Process 0 of 4 is on n0107.etna0 - thread support 0
Process 1 of 4 is on n0107.etna0 - thread support 0
Process 2 of 4 is on n0107.etna0 - thread support 0
Process 3 of 4 is on n0107.etna0 - thread support 0
initial socket setup ...start
initial socket setup ...done 
now start server 0 ... 
Check license passed

                  Welcome to Q-Chem
     A Quantum Leap Into The Future Of Chemistry


 Q-Chem 5.1, Q-Chem, Inc., Pleasanton, CA (2018)

 Yihan Shao,  Zhengting Gan,  E. Epifanovsky,  A. T. B. Gilbert,  M. Wormit,  
 J. Kussmann,  A. W. Lange,  A. Behn,  Jia Deng,  Xintian Feng,  D. Ghosh,  
 M. Goldey,  P. R. Horn,  L. D. Jacobson,  I. Kaliman,  T. Kus,  A. Landau,  
 Jie Liu,  E. I. Proynov,  R. M. Richard,  R. P. Steele,  E. J. Sundstrom,  
 H. L. Woodcock III,  P. M. Zimmerman,  D. Zuev,  B. Albrecht,  E. Alguire,  
 S. A. Baeppler,  D. Barton,  Z. Benda,  Y. A. Bernard,  E. J. Berquist,  
 K. B. Bravaya,  H. Burton,  D. Casanova,  Chun-Min Chang,  Yunqing Chen,  
 A. Chien,  K. D. Closser,  M. P. Coons,  S. Coriani,  S. Dasgupta,  
 A. L. Dempwolff,  M. Diedenhofen,  Hainam Do,  R. G. Edgar,  Po-Tung Fang,  
 S. Faraji,  S. Fatehi,  Qingguo Feng,  K. D. Fenk,  J. Fosso-Tande,  
 J. Gayvert,  Qinghui Ge,  A. Ghysels,  G. Gidofalvi,  J. Gomes,  
 J. Gonthier,  A. Gunina,  D. Hait,  M. W. D. Hanson-Heine,  
 P. H. P. Harbach,  A. W. Hauser,  J. E. Herr,  E. G. Hohenstein,  
 Z. C. Holden,  Kerwin Hui,  B. C. Huynh,  T.-C. Jagau,  Hyunjun Ji,  
 B. Kaduk,  K. Khistyaev,  Jaehoon Kim,  P. Klunzinger,  K. Koh,  
 D. Kosenkov,  L. Koulias,  T. Kowalczyk,  C. M. Krauter,  A. Kunitsa,  
 Ka Un Lao,  A. Laurent,  K. V. Lawler,  Joonho Lee,  D. Lefrancois,  
 S. Lehtola,  D. S. Levine,  Yi-Pei Li,  You-Sheng Lin,  Fenglai Liu,  
 E. Livshits,  A. Luenser,  P. Manohar,  E. Mansoor,  S. F. Manzer,  
 Shan-Ping Mao,  Yuezhi Mao,  N. Mardirossian,  A. V. Marenich,  
 T. Markovich,  L. A. Martinez-Martinez,  S. A. Maurer,  N. J. Mayhall,  
 S. C. McKenzie,  J.-M. Mewes,  A. F. Morrison,  J. W. Mullinax,  K. Nanda,  
 T. S. Nguyen-Beck,  R. Olivares-Amaya,  J. A. Parkhill,  T. M. Perrine,  
 F. Plasser,  P. Pokhilko,  S. Prager,  A. Prociuk,  E. Ramos,  D. R. Rehn,  
 F. Rob,  M. Schneider,  N. Sergueev,  S. M. Sharada,  S. Sharma,  
 D. W. Small,  T. Stauch,  T. Stein,  Yu-Chuan Su,  A. J. W. Thom,  
 A. Tkatchenko,  T. Tsuchimochi,  N. M. Tubman,  L. Vogt,  M. L. Vidal,  
 O. Vydrov,  M. A. Watson,  J. Wenzel,  M. de Wergifosse,  T. A. Wesolowski,  
 A. White,  J. Witte,  A. Yamada,  Jun Yang,  K. Yao,  S. Yeganeh,  
 S. R. Yost,  Zhi-Qiang You,  A. Zech,  Igor Ying Zhang,  Xing Zhang,  
 Yan Zhao,  Ying Zhu,  B. R. Brooks,  G. K. L. Chan,  C. J. Cramer,  
 M. S. Gordon,  W. J. Hehre,  A. Klamt,  M. W. Schmidt,  C. D. Sherrill,  
 D. G. Truhlar,  A. Aspuru-Guzik,  R. Baer,  A. T. Bell,  N. A. Besley,  
 Jeng-Da Chai,  A. E. DePrince, III,  R. A. DiStasio Jr.,  A. Dreuw,  
 B. D. Dunietz,  T. R. Furlani,  Chao-Ping Hsu,  Yousung Jung,  Jing Kong,  
 D. S. Lambrecht,  WanZhen Liang,  C. Ochsenfeld,  V. A. Rassolov,  
 L. V. Slipchenko,  J. E. Subotnik,  T. Van Voorhis,  J. M. Herbert,  
 A. I. Krylov,  P. M. W. Gill,  M. Head-Gordon

 Contributors to earlier versions of Q-Chem not listed above: 
 R. D. Adamson,  B. Austin,  J. Baker,  G. J. O. Beran,  K. Brandhorst,  
 S. T. Brown,  E. F. C. Byrd,  A. K. Chakraborty,  C.-L. Cheng,  
 Siu Hung Chien,  D. M. Chipman,  D. L. Crittenden,  H. Dachsel,  
 R. J. Doerksen,  A. D. Dutoi,  L. Fusti-Molnar,  W. A. Goddard III,  
 A. Golubeva-Zadorozhnaya,  S. R. Gwaltney,  G. Hawkins,  A. Heyden,  
 S. Hirata,  G. Kedziora,  F. J. Keil,  C. Kelley,  Jihan Kim,  R. A. King,  
 R. Z. Khaliullin,  P. P. Korambath,  W. Kurlancheek,  A. M. Lee,  M. S. Lee,  
 S. V. Levchenko,  Ching Yeh Lin,  D. Liotard,  R. C. Lochan,  I. Lotan,  
 P. E. Maslen,  N. Nair,  D. P. O'Neill,  D. Neuhauser,  E. Neuscamman,  
 C. M. Oana,  R. Olson,  B. Peters,  R. Peverati,  P. A. Pieniazek,  
 Y. M. Rhee,  J. Ritchie,  M. A. Rohrdanz,  E. Rosta,  N. J. Russ,  
 H. F. Schaefer III,  N. E. Schultz,  N. Shenvi,  A. C. Simmonett,  A. Sodt,  
 D. Stuck,  K. S. Thanthiriwatte,  V. Vanovschi,  Tao Wang,  A. Warshel,  
 C. F. Williams,  Q. Wu,  X. Xu,  W. Zhang

 Please cite Q-Chem as follows:
 Y. Shao et al., Mol. Phys. 113, 184-215 (2015)
 DOI: 10.1080/00268976.2014.952696

 Q-Chem 5.1.2 for Intel X86 EM64T Linux

 Parts of Q-Chem use Armadillo 8.300.2 (Tropical Shenanigans).
 http://arma.sourceforge.net/

 Q-Chem begins on Wed Aug  7 17:49:59 2019  

Host: 
0

     Scratch files written to ./QC_SCR/temp.0//
 Dec218 |scratch|qcdevops|jenkins|workspace|build_RNUM 6439   
 Parallel job on  4  processors
Processing $rem in /global/home/groups-sw/nano/software/sl-7.x86_64/qchem/5.1.2/config/preferences.
 MEM_TOTAL  2000 
Input Ideriv = 2
Curr. Ideriv = -1
Max.  Ideriv = 2

Checking the input file for inconsistencies... 	...done.

--------------------------------------------------------------
User input:
--------------------------------------------------------------
$molecule
0 1
C	2.4304274707	-0.7073198348	0.0000000000
C	2.4304274707	0.7073198348	0.0000000000
C	1.2429414410	1.4002518046	0.0000000000
C	0.0000000000	0.7151534941	0.0000000000
C	0.0000000000	-0.7151534941	0.0000000000
C	1.2429414410	-1.4002518046	0.0000000000
C	-1.2429414410	-1.4002518046	0.0000000000
C	-2.4304274707	-0.7073198348	0.0000000000
C	-2.4304274707	0.7073198348	0.0000000000
C	-1.2429414410	1.4002518046	0.0000000000
H	3.3785059800	-1.2481439436	0.0000000000
H	3.3785059800	1.2481439436	0.0000000000
H	1.2414657771	2.4923775989	0.0000000000
H	1.2414657771	-2.4923775989	0.0000000000
H	-1.2414657771	-2.4923775989	0.0000000000
H	-3.3785059800	-1.2481439436	0.0000000000
H	-3.3785059800	1.2481439436	0.0000000000
H	-1.2414657771	2.4923775989	0.0000000000
$end
$rem
JOBTYPE 		SP
BASIS 			def2-QZVPD
BASIS2			def2-SVP
METHOD			PBE0
GUI 			2
!SCF OPTIONS
MAX_SCF_CYCLES          400
SCF_CONVERGENCE         8
GEN_SCFMAN_HYBRID_ALGO 	TRUE
GEN_SCFMAN_ALGO_1	DIIS
GEN_SCFMAN_ITER_1	50
GEN_SCFMAN_ALGO_2	GDM
MEM_TOTAL               20000
$end
--------------------------------------------------------------
 ----------------------------------------------------------------
             Standard Nuclear Orientation (Angstroms)
    I     Atom           X                Y                Z
 ----------------------------------------------------------------
    1      C       2.4304274707    -0.7073198348    -0.0000000000
    2      C       2.4304274707     0.7073198348     0.0000000000
    3      C       1.2429414410     1.4002518046     0.0000000000
    4      C       0.0000000000     0.7151534941     0.0000000000
    5      C       0.0000000000    -0.7151534941    -0.0000000000
    6      C       1.2429414410    -1.4002518046    -0.0000000000
    7      C      -1.2429414410    -1.4002518046    -0.0000000000
    8      C      -2.4304274707    -0.7073198348    -0.0000000000
    9      C      -2.4304274707     0.7073198348     0.0000000000
   10      C      -1.2429414410     1.4002518046     0.0000000000
   11      H       3.3785059800    -1.2481439436    -0.0000000000
   12      H       3.3785059800     1.2481439436     0.0000000000
   13      H       1.2414657771     2.4923775989     0.0000000000
   14      H       1.2414657771    -2.4923775989    -0.0000000000
   15      H      -1.2414657771    -2.4923775989    -0.0000000000
   16      H      -3.3785059800    -1.2481439436    -0.0000000000
   17      H      -3.3785059800     1.2481439436     0.0000000000
   18      H      -1.2414657771     2.4923775989     0.0000000000
 ----------------------------------------------------------------
 Molecular Point Group                 D2h   NOp =  8
 Largest Abelian Subgroup              D2h   NOp =  8
 Nuclear Repulsion Energy =   457.6101939670 hartrees
 There are       34 alpha and       34 beta electrons
 Requested basis set is def2-QZVPD
 There are 278 shells and 894 basis functions

 Total QAlloc Memory Limit  20000 MB
 Mega-Array Size       188 MB
 MEM_STATIC part       192 MB
 A cutoff of  1.0D-11 yielded  32099 shell pairs
 There are    329083 function pairs (    488225 Cartesian)
 
 -------------------------------------------------------
 OpenMP Integral Computing Module                       
 Release: version 1.0, May 2013, Q-Chem Inc. Pittsburgh 
 -------------------------------------------------------
 Integral Job Info:
 Integral job number is                      11
 Integral operator is                         1
 short-range coefficients                     0
 long-range coefficients              100000000
 Omega coefficients                           0
 if combine SR and LR in K                    0
 Integral screening is                        0
 Integral computing path is                   2
 max size of driver memory is           3200000
 size of driver memory is               1704330
 size of scratch memory is             14348220
 max col of scratch BK array              50625
 max len of scratch array in speh3         2114
 max len of scratch index in speh4           50
 max int batch size is                      520
 min int batch size is                       52
 fixed nKL is                                52
 max L of basis functions is                  4
 order of int derivative is                   0
 number of shells is                        278
 number of basis is                        1094
 number of cartesian basis is              1094
 number of contracted shell pairs         32099
 number of primitive shell pairs          57590
 maxK2 (contraction) of shell pair           64
 max number of K2 of shell pair               1
 max number of CS2 of shell pair           4888
 max number of PS2 of shell pair           4888
 mem total for path MDJ                 1789328
 -------------------------------------------------------
 Smallest overlap matrix eigenvalue = 1.35E-09

 Q-Chem warning in module stvman/mkSTV.C, line 306:

 Overlap eigenvalue is smaller than square root of threshold
 Use THRESH >= 12 to get rid of this warning

 Linear dependence detected in AO basis
 Tighter screening thresholds may be required for diffuse basis sets
 Use S2THRESH > 14 and THRESH = 14 in case of SCF convergence issues
 Number of orthogonalized atomic orbitals = 879
 Maximum deviation from orthogonality = 1.266E-09

 Scale SEOQF with 1.000000e-01/1.000000e-01/1.000000e-01

 Standard Electronic Orientation quadrupole field applied
 Nucleus-field energy     =     0.0000000151 hartrees
 Requested basis set is def2-SVP
 There are 84 shells and 180 basis functions
 A cutoff of  1.0D-11 yielded   3240 shell pairs
 There are     14728 function pairs (     16405 Cartesian)
 Smallest overlap matrix eigenvalue = 2.72E-04
 Guess from superposition of atomic densities
 Warning:  Energy on first SCF cycle will be non-variational
 SAD guess density has 68.000000 electrons
 A restricted hybrid HF-DFT SCF calculation will be
 performed using Pulay DIIS extrapolation
 Exchange:     0.2500 Hartree-Fock + 0.7500 PBE
 Correlation:  1.0000 PBE
 Using SG-1 standard quadrature grid
 SCF converges when DIIS error is below 1.0E-04
 using 12 threads for integral computing
 -------------------------------------------------------
 OpenMP Integral computing Module                
 Release: version 1.0, May 2013, Q-Chem Inc. Pittsburgh 
 -------------------------------------------------------
 -------------------------------------------------------
 OpenMP BLAS3 based DFT computing Module                
 -------------------------------------------------------
 ---------------------------------------
  Cycle       Energy         DIIS Error
 ---------------------------------------
    1    -387.7607122567      6.01E-02
    2    -385.0446176193      4.79E-03
    3    -385.0671077423      4.48E-03
    4    -385.1592260321      4.30E-04
    5    -385.1596509876      2.69E-04
    6    -385.1599355920      7.47E-05 Convergence criterion met
 ---------------------------------------
 SCF time:  CPU 26.74 s  wall 6.50 s
 SCF   energy in the small basis set = -385.15993559
 Total energy in the small basis set = -385.15993559
 ----------------------------------------------------
  Cycle       Energy    
 ----------------------------------------------------
    1     -49.2335019978     -4.92E+01
 A restricted hybrid HF-DFT SCF calculation will be
 performed using Pulay DIIS extrapolation
 Exchange:     0.2500 Hartree-Fock + 0.7500 PBE
 Correlation:  1.0000 PBE
 Using SG-1 standard quadrature grid
 SCF converges when DIIS error is below 1.0E-08
Basis2 calculation detected. Using small basis as guess for larger.
SCFMinFind is unable to tell whether the solution found is close.
Resetting ReadMinima to 0 and attempting to follow guess.
SCFMinFind following SCF Guess.
 using 12 threads for integral computing
 -------------------------------------------------------
 OpenMP Integral computing Module                
 Release: version 1.0, May 2013, Q-Chem Inc. Pittsburgh 
 -------------------------------------------------------
 -------------------------------------------------------
 OpenMP BLAS3 based DFT computing Module                
 -------------------------------------------------------
 ---------------------------------------
  Cycle       Energy         DIIS Error
 ---------------------------------------
    1    -385.5345426803      1.84E-03
    2    -385.5807876980      1.53E-04
    3    -385.5810371837      9.24E-05
    4    -385.5818230667      2.74E-05
    5    -385.5818769676      1.36E-05
    6    -385.5818957463      2.65E-06
    7    -385.5818963560      8.96E-07
    8    -385.5818964275      6.99E-08
    9    -385.5818964282      1.01E-08
   10    -385.5818964282      2.90E-09 Convergence criterion met
 ---------------------------------------
 SCF time:  CPU 6065.60 s  wall 1186.34 s
 SCF   energy in the final basis set = -385.58189643
 Total energy in the final basis set = -385.58189643
 
 --------------------------------------------------------------
             Orbital Energies (a.u.) and Symmetries
 --------------------------------------------------------------
 
 Alpha MOs, Restricted
 -- Occupied --                  
-10.244 -10.243 -10.235 -10.235 -10.235 -10.235 -10.234 -10.234
  1 Ag    1 B2u   1 B3u   2 Ag    1 B1g   2 B2u   2 B3u   3 Ag                 
-10.234 -10.234  -0.904  -0.850  -0.800  -0.767  -0.744  -0.648
  2 B1g   3 B2u   4 Ag    3 B3u   4 B2u   5 Ag    3 B1g   4 B3u                
 -0.633  -0.617  -0.533  -0.528  -0.512  -0.463  -0.458  -0.433
  5 B2u   6 Ag    5 B3u   4 B1g   7 Ag    6 B2u   8 Ag    6 B3u                
 -0.432  -0.415  -0.412  -0.383  -0.352  -0.347  -0.344  -0.304
  5 B1g   7 B2u   1 B1u   7 B3u   6 B1g   1 B2g   9 Ag    1 B3g                
 -0.261  -0.233
  2 B1u   1 Au                                                                 
 -- Virtual --                   
 -0.046  -0.018   0.009   0.014   0.022   0.022   0.044   0.044
  2 B2g   2 B3g  10 Ag    3 B1u   8 B3u   8 B2u   7 B1g  11 Ag                 
  0.054   0.066   0.070   0.089   0.101   0.103   0.107   0.108
 12 Ag    9 B2u   9 B3u   2 Au   10 B3u   3 B3g   4 B1u   8 B1g                
  0.113   0.122   0.129   0.149   0.154   0.163   0.166   0.170
 10 B2u   3 B2g  13 Ag   11 B2u  14 Ag    5 B1u   3 Au    9 B1g                
  0.173   0.177   0.179   0.181   0.188   0.191   0.198   0.198
 15 Ag   12 B2u  11 B3u   4 B3g  12 B3u   6 B1u  16 Ag   13 B3u                
  0.200   0.202   0.205   0.211   0.218   0.221   0.233   0.233
 17 Ag   10 B1g  13 B2u   4 B2g   5 B2g  18 Ag    5 B3g  11 B1g                
  0.248   0.250   0.255   0.255   0.256   0.260   0.260   0.267
 12 B1g  14 B3u  19 Ag    6 B3g  14 B2u   4 Au   15 B2u   7 B1u                
  0.273   0.284   0.286   0.287   0.290   0.295   0.306   0.309
 15 B3u  16 B2u   8 B1u  17 B2u  20 Ag   16 B3u   5 Au   17 B3u                
  0.315   0.318   0.326   0.327   0.330   0.334   0.339   0.340
 13 B1g  21 Ag    9 B1u   7 B3g   6 B2g  18 B2u  14 B1g  22 Ag                 
  0.347   0.351   0.353   0.356   0.357   0.378   0.380   0.384
  7 B2g  23 Ag   19 B2u  15 B1g  18 B3u  19 B3u  24 Ag   20 B2u                
  0.384   0.401   0.404   0.412   0.414   0.419   0.428   0.430
  8 B3g   9 B3g   8 B2g  21 B2u   6 Au   16 B1g  10 B1u  20 B3u                
  0.431   0.438   0.439   0.440   0.442   0.448   0.455   0.456
  7 Au   11 B1u  17 B1g  18 B1g  21 B3u  25 Ag   22 B2u  26 Ag                 
  0.468   0.475   0.476   0.486   0.492   0.493   0.494   0.505
 22 B3u  27 Ag   10 B3g  23 B2u  28 Ag    9 B2g  12 B1u  11 B3g                
  0.506   0.509   0.515   0.517   0.527   0.541   0.542   0.543
 23 B3u  19 B1g  29 Ag   24 B2u   8 Au   10 B2g  30 Ag   20 B1g                
  0.546   0.548   0.552   0.554   0.560   0.560   0.561   0.561
 25 B2u  12 B3g  13 B1u  24 B3u  25 B3u  26 B2u  31 Ag   11 B2g                
  0.563   0.570   0.583   0.587   0.591   0.595   0.611   0.616
  9 Au   21 B1g  26 B3u  10 Au   14 B1u  27 B2u  32 Ag   28 B2u                
  0.618   0.620   0.620   0.622   0.644   0.645   0.647   0.656
 22 B1g  23 B1g  13 B3g  12 B2g  11 Au   27 B3u  29 B2u  33 Ag                 
  0.689   0.692   0.697   0.698   0.704   0.721   0.727   0.735
 24 B1g  28 B3u  30 B2u  34 Ag   15 B1u  31 B2u  25 B1g  13 B2g                
  0.744   0.747   0.748   0.751   0.755   0.764   0.764   0.769
 16 B1u  29 B3u  12 Au   35 Ag   32 B2u  17 B1u  36 Ag   26 B1g                
  0.771   0.774   0.780   0.798   0.807   0.815   0.819   0.830
 14 B3g  14 B2g  30 B3u  27 B1g  33 B2u  28 B1g  15 B2g  37 Ag                 
  0.849   0.850   0.864   0.865   0.866   0.877   0.878   0.878
 15 B3g  31 B3u  32 B3u  38 Ag   18 B1u  33 B3u  16 B3g  13 Au                 
  0.885   0.897   0.902   0.905   0.922   0.934   0.935   0.936
 29 B1g  39 Ag   34 B2u  19 B1u  16 B2g  30 B1g  34 B3u  14 Au                 
  0.937   0.950   0.960   0.961   0.963   0.964   0.972   0.992
 35 B2u  17 B3g  40 Ag   36 B2u  35 B3u  20 B1u  41 Ag   31 B1g                
  1.009   1.009   1.014   1.016   1.017   1.068   1.069   1.079
 15 Au   42 Ag   17 B2g  37 B2u  18 B3g  38 B2u  18 B2g  16 Au                 
  1.079   1.082   1.092   1.114   1.118   1.121   1.124   1.128
 36 B3u  32 B1g  43 Ag   37 B3u  39 B2u  44 Ag   19 B2g  21 B1u                
  1.132   1.164   1.170   1.184   1.187   1.190   1.191   1.199
 19 B3g  33 B1g  22 B1u  45 Ag   17 Au   20 B3g  38 B3u  18 Au                 
  1.199   1.214   1.225   1.232   1.235   1.241   1.245   1.258
 40 B2u  34 B1g  21 B3g  46 Ag   41 B2u  23 B1u  35 B1g  39 B3u                
  1.277   1.283   1.299   1.307   1.316   1.322   1.327   1.350
 47 Ag   42 B2u  36 B1g  20 B2g  40 B3u  43 B2u  41 B3u  19 Au                 
  1.354   1.369   1.372   1.383   1.387   1.426   1.426   1.447
 48 Ag   42 B3u  37 B1g  44 B2u  49 Ag   50 Ag   45 B2u  38 B1g                
  1.454   1.470   1.475   1.487   1.521   1.531   1.540   1.553
 51 Ag   43 B3u  22 B3g  39 B1g  44 B3u  40 B1g  23 B3g  46 B2u                
  1.566   1.576   1.590   1.606   1.628   1.665   1.665   1.665
 52 Ag   41 B1g  47 B2u  45 B3u  20 Au   46 B3u  42 B1g  24 B1u                
  1.689   1.695   1.728   1.731   1.734   1.735   1.758   1.761
 48 B2u  53 Ag   43 B1g  49 B2u  54 Ag   25 B1u  47 B3u  21 B2g                
  1.776   1.787   1.828   1.838   1.843   1.867   1.870   1.872
 50 B2u  22 B2g  26 B1u  44 B1g  55 Ag   24 B3g  23 B2g  48 B3u                
  1.873   1.877   1.908   1.912   1.917   1.932   1.944   1.950
 56 Ag   51 B2u  49 B3u  21 Au   25 B3g  45 B1g  27 B1u  50 B3u                
  1.957   1.959   1.959   1.970   1.989   1.992   2.011   2.016
 52 B2u  24 B2g  57 Ag   28 B1u  46 B1g  58 Ag   59 Ag   25 B2g                
  2.020   2.026   2.041   2.047   2.054   2.075   2.085   2.090
 22 Au   51 B3u  53 B2u  29 B1u  23 Au   52 B3u  30 B1u  26 B3g                
  2.102   2.102   2.106   2.116   2.125   2.130   2.138   2.140
 47 B1g  54 B2u  60 Ag   26 B2g  31 B1u  24 Au   48 B1g  27 B3g                
  2.148   2.152   2.174   2.175   2.175   2.177   2.183   2.238
 27 B2g  55 B2u  61 Ag   53 B3u  32 B1u  28 B2g  28 B3g  62 Ag                 
  2.245   2.246   2.251   2.258   2.285   2.289   2.305   2.316
 29 B3g  25 Au   54 B3u  56 B2u  63 Ag   29 B2g  49 B1g  57 B2u                
  2.319   2.320   2.320   2.321   2.324   2.336   2.352   2.363
 33 B1u  55 B3u  50 B1g  26 Au   30 B3g  58 B2u  30 B2g  27 Au                 
  2.365   2.366   2.388   2.399   2.401   2.429   2.439   2.455
 51 B1g  56 B3u  59 B2u  64 Ag   57 B3u  58 B3u  31 B3g  34 B1u                
  2.460   2.476   2.498   2.500   2.515   2.531   2.560   2.565
 65 Ag   52 B1g  28 Au   60 B2u  31 B2g  66 Ag   35 B1u  67 Ag                 
  2.570   2.588   2.590   2.591   2.592   2.594   2.611   2.614
 32 B3g  33 B3g  68 Ag   53 B1g  59 B3u  61 B2u  32 B2g  36 B1u                
  2.616   2.617   2.639   2.646   2.646   2.667   2.682   2.694
 69 Ag   54 B1g  29 Au   60 B3u  37 B1u  30 Au   62 B2u  33 B2g                
  2.700   2.703   2.708   2.712   2.722   2.738   2.740   2.744
 61 B3u  55 B1g  56 B1g  70 Ag   34 B3g  34 B2g  31 Au   38 B1u                
  2.753   2.754   2.756   2.757   2.765   2.772   2.783   2.791
 71 Ag   35 B3g  63 B2u  62 B3u  32 Au   64 B2u  57 B1g  72 Ag                 
  2.795   2.801   2.812   2.814   2.815   2.819   2.852   2.857
 65 B2u  36 B3g  63 B3u  39 B1u  66 B2u  58 B1g  73 Ag   64 B3u                
  2.865   2.870   2.872   2.877   2.882   2.888   2.905   2.919
 65 B3u  35 B2g  33 Au   59 B1g  67 B2u  37 B3g  74 Ag   68 B2u                
  2.925   2.969   2.979   2.992   2.995   3.003   3.014   3.031
 60 B1g  61 B1g  40 B1u  69 B2u  66 B3u  75 Ag   62 B1g  70 B2u                
  3.045   3.069   3.074   3.086   3.121   3.130   3.138   3.152
 36 B2g  76 Ag   67 B3u  38 B3g  71 B2u  77 Ag   63 B1g  68 B3u                
  3.177   3.208   3.214   3.244   3.266   3.284   3.295   3.303
 34 Au   35 Au   72 B2u  39 B3g  78 Ag   41 B1u  64 B1g  69 B3u                
  3.311   3.332   3.335   3.367   3.370   3.371   3.398   3.416
 79 Ag   37 B2g  70 B3u  42 B1u  65 B1g  73 B2u  80 Ag   66 B1g                
  3.422   3.430   3.453   3.463   3.466   3.484   3.485   3.496
 74 B2u  71 B3u  36 Au   67 B1g  40 B3g  43 B1u  81 Ag   82 Ag                 
  3.501   3.524   3.531   3.545   3.548   3.576   3.611   3.623
 72 B3u  73 B3u  68 B1g  38 B2g  75 B2u  76 B2u  41 B3g  69 B1g                
  3.632   3.648   3.667   3.668   3.686   3.713   3.756   3.775
 83 Ag   39 B2g  74 B3u  42 B3g  37 Au   44 B1u  38 Au   84 Ag                 
  3.785   3.792   3.796   3.810   3.835   3.887   3.914   3.939
 70 B1g  40 B2g  77 B2u  43 B3g  75 B3u  85 Ag   45 B1u  76 B3u                
  3.998   4.048   4.062   4.091   4.120   4.129   4.133   4.139
 39 Au   78 B2u  71 B1g  79 B2u  77 B3u  80 B2u  44 B3g  86 Ag                 
  4.159   4.201   4.233   4.268   4.281   4.303   4.311   4.340
 72 B1g  87 Ag   73 B1g  81 B2u  78 B3u  40 Au   88 Ag   74 B1g                
  4.342   4.384   4.499   4.533   4.559   4.567   4.606   4.622
 45 B3g  82 B2u  83 B2u  79 B3u  75 B1g  89 Ag   80 B3u  84 B2u                
  4.672   4.700   4.705   4.790   4.815   4.824   4.853   4.905
 90 Ag   76 B1g  41 B2g  85 B2u  91 Ag   81 B3u  46 B1u  82 B3u                
  4.920   4.961   4.961   4.995   5.002   5.006   5.011   5.027
 42 B2g  47 B1u  77 B1g  92 Ag   78 B1g  83 B3u  86 B2u  43 B2g                
  5.076   5.114   5.123   5.127   5.130   5.159   5.161   5.161
 48 B1u  87 B2u  93 Ag   44 B2g  46 B3g  49 B1u  84 B3u  41 Au                 
  5.180   5.219   5.223   5.224   5.228   5.249   5.262   5.264
 94 Ag   47 B3g  42 Au   50 B1u  79 B1g  88 B2u  85 B3u  95 Ag                 
  5.279   5.280   5.284   5.296   5.331   5.349   5.365   5.368
 80 B1g  43 Au   89 B2u  86 B3u  81 B1g  45 B2g  96 Ag   82 B1g                
  5.369   5.395   5.419   5.452   5.455   5.465   5.515   5.515
 46 B2g  51 B1u  90 B2u  48 B3g  52 B1u  97 Ag   87 B3u  49 B3g                
  5.524   5.531   5.532   5.563   5.563   5.581   5.594   5.600
 47 B2g  44 Au   53 B1u  48 B2g  91 B2u  50 B3g  45 Au   83 B1g                
  5.605   5.646   5.648   5.660   5.660   5.694   5.696   5.709
 98 Ag   99 Ag   49 B2g  92 B2u  88 B3u  54 B1u  84 B1g  46 Au                 
  5.711   5.757   5.758   5.809   5.830   5.848   5.863   5.870
 51 B3g  89 B3u  55 B1u  47 Au   52 B3g  93 B2u  90 B3u  53 B3g                
  5.913   5.923   5.927   5.935   5.945   5.946   5.949   5.950
 85 B1g  50 B2g  91 B3u  48 Au   56 B1u  94 B2u  51 B2g  54 B3g                
  5.951   5.964   5.985   6.011   6.042   6.043   6.054   6.075
100 Ag   92 B3u 101 Ag   57 B1u  58 B1u 102 Ag   86 B1g  49 Au                 
  6.077   6.079   6.088   6.103   6.112   6.122   6.126   6.126
 95 B2u  52 B2g 103 Ag   93 B3u  53 B2g  55 B3g 104 Ag   96 B2u                
  6.129   6.146   6.151   6.152   6.152   6.154   6.174   6.189
 87 B1g  50 Au   59 B1u  94 B3u  54 B2g  56 B3g  51 Au   97 B2u                
  6.215   6.220   6.236   6.245   6.261   6.264   6.277   6.283
105 Ag   57 B3g  95 B3u  88 B1g 106 Ag   60 B1u  89 B1g  55 B2g                
  6.283   6.298   6.314   6.315   6.318   6.336   6.341   6.341
 96 B3u  98 B2u  52 Au   61 B1u 107 Ag   99 B2u  97 B3u  90 B1g                
  6.350   6.369   6.382   6.387   6.388   6.389   6.399   6.410
100 B2u  91 B1g  58 B3g  98 B3u 101 B2u  56 B2g 108 Ag  109 Ag                 
  6.429   6.441   6.452   6.469   6.478   6.480   6.492   6.493
 53 Au   92 B1g  62 B1u  93 B1g  59 B3g  99 B3u  54 Au  102 B2u                
  6.522   6.543   6.546   6.554   6.559   6.568   6.586   6.612
110 Ag   63 B1u 111 Ag   94 B1g 100 B3u  57 B2g 101 B3u 103 B2u                
  6.618   6.632   6.633   6.644   6.650   6.650   6.674   6.680
104 B2u  55 Au  112 Ag   60 B3g 105 B2u  58 B2g  95 B1g  64 B1u                
  6.713   6.717   6.735   6.742   6.745   6.745   6.746   6.752
102 B3u  96 B1g 113 Ag  106 B2u  56 Au   61 B3g  97 B1g  65 B1u                
  6.763   6.785   6.788   6.821   6.828   6.838   6.851   6.858
114 Ag   59 B2g  62 B3g 107 B2u  66 B1u 103 B3u  60 B2g 104 B3u                
  6.868   6.883   6.885   6.899   6.918   6.955   6.971   7.016
 57 Au   63 B3g 108 B2u  98 B1g  61 B2g 115 Ag   99 B1g  67 B1u                
  7.018   7.032   7.044   7.051   7.056   7.102   7.105   7.107
 58 Au  100 B1g  59 Au  109 B2u  64 B3g 116 Ag  105 B3u  65 B3g                
  7.110   7.158   7.166   7.169   7.187   7.231   7.274   7.301
101 B1g  62 B2g  66 B3g  68 B1u 117 Ag   60 Au  110 B2u 111 B2u                
  7.323   7.343   7.361   7.378   7.406   7.406   7.424   7.435
106 B3u 102 B1g 107 B3u 118 Ag   69 B1u 112 B2u  61 Au  119 Ag                 
  7.454   7.491   7.504   7.506   7.512   7.536   7.554   7.554
108 B3u 103 B1g 109 B3u  63 B2g 113 B2u 104 B1g  70 B1u  64 B2g                
  7.556   7.567   7.580   7.588   7.598   7.636   7.673   7.674
120 Ag  110 B3u 114 B2u  67 B3g  62 Au  105 B1g 115 B2u 111 B3u                
  7.697   7.712   7.730   7.734   7.741   7.744   7.774   7.778
121 Ag   68 B3g 116 B2u  65 B2g  71 B1u 122 Ag  117 B2u 106 B1g                
  7.836   7.844   7.847   7.878   7.923   7.927   7.943   7.953
 63 Au  123 Ag  124 Ag   72 B1u 118 B2u 112 B3u 113 B3u 107 B1g                
  7.960   7.979   7.980   7.995   8.026   8.076   8.086   8.123
 69 B3g  66 B2g  64 Au  125 Ag  119 B2u 108 B1g 114 B3u  70 B3g                
  8.145   8.146   8.151   8.160   8.166   8.182   8.186   8.191
115 B3u  67 B2g 109 B1g  73 B1u  65 Au  126 Ag   74 B1u 110 B1g                
  8.204   8.210   8.214   8.215   8.245   8.247   8.248   8.293
 71 B3g 120 B2u 116 B3u 127 Ag  121 B2u  66 Au   72 B3g 111 B1g                
  8.303   8.323   8.323   8.326   8.327   8.333   8.349   8.374
128 Ag   67 Au   73 B3g  68 B2g 122 B2u  75 B1u 117 B3u 129 Ag                 
  8.381   8.408   8.426   8.430   8.452   8.458   8.465   8.481
 69 B2g 112 B1g 130 Ag  123 B2u  76 B1u 118 B3u  70 B2g  68 Au                 
  8.482   8.485   8.506   8.516   8.536   8.542   8.550   8.555
113 B1g  74 B3g  77 B1u 114 B1g 124 B2u  71 B2g 119 B3u 131 Ag                 
  8.587   8.594   8.606   8.607   8.620   8.669   8.676   8.730
125 B2u  69 Au   75 B3g 115 B1g 120 B3u  76 B3g 116 B1g  70 Au                 
  8.748   8.763   8.773   8.779   8.798   8.843   8.849   8.857
 72 B2g  78 B1u 121 B3u 132 Ag   77 B3g 126 B2u 117 B1g 133 Ag                 
  8.868   8.901   8.927   8.954   8.954   8.975   8.984   9.004
127 B2u 122 B3u 128 B2u  71 Au  118 B1g  72 Au   78 B3g 134 Ag                 
  9.021   9.125   9.138   9.278   9.371   9.402   9.437   9.540
123 B3u 135 Ag  119 B1g 129 B2u 120 B1g 136 Ag  124 B3u 130 B2u                
  9.566   9.584   9.700   9.701   9.701   9.746   9.759   9.763
125 B3u 137 Ag  138 Ag   73 B2g  79 B1u 131 B2u 126 B3u 121 B1g                
  9.782   9.785   9.825   9.892   9.894   9.897   9.948   9.951
 79 B3g  73 Au  122 B1g 127 B3u 132 B2u 139 Ag   80 B1u  74 B2g                
  9.981   9.998  10.010  10.071  10.099  10.129  10.172  10.187
123 B1g 128 B3u 133 B2u 134 B2u 140 Ag  124 B1g 135 B2u  74 Au                 
 10.204  10.271  10.309  10.344  10.424  10.446  10.453  10.476
 80 B3g 136 B2u 125 B1g 141 Ag  129 B3u 142 Ag  137 B2u 130 B3u                
 10.628  10.673  10.754  10.768  10.781  10.820  10.934  11.564
126 B1g 138 B2u 131 B3u 127 B1g 139 B2u 128 B1g 143 Ag  129 B1g                
 11.689  12.338  12.369  12.722  12.783  12.899  12.985  13.210
140 B2u 144 Ag  132 B3u 130 B1g 141 B2u 145 Ag  133 B3u 142 B2u                
 13.242  28.117  28.332  28.537  28.592  28.605  28.902  28.970
131 B1g 146 Ag  134 B3u 143 B2u 147 Ag  132 B1g 144 B2u 135 B3u                
 29.135  29.301  29.466 147.354 147.556 147.750 147.779 147.801
148 Ag  133 B1g 145 B2u 149 Ag  136 B3u 146 B2u 134 B1g 150 Ag                 
148.037 148.121 148.286 148.465 148.640
147 B2u 137 B3u 151 Ag  135 B1g 148 B2u                                        
 
 Beta MOs, Restricted
 -- Occupied --                  
-10.244 -10.243 -10.235 -10.235 -10.235 -10.235 -10.234 -10.234
  1 Ag    1 B2u   1 B3u   2 Ag    1 B1g   2 B2u   2 B3u   3 Ag                 
-10.234 -10.234  -0.904  -0.850  -0.800  -0.767  -0.744  -0.648
  2 B1g   3 B2u   4 Ag    3 B3u   4 B2u   5 Ag    3 B1g   4 B3u                
 -0.633  -0.617  -0.533  -0.528  -0.512  -0.463  -0.458  -0.433
  5 B2u   6 Ag    5 B3u   4 B1g   7 Ag    6 B2u   8 Ag    6 B3u                
 -0.432  -0.415  -0.412  -0.383  -0.352  -0.347  -0.344  -0.304
  5 B1g   7 B2u   1 B1u   7 B3u   6 B1g   1 B2g   9 Ag    1 B3g                
 -0.261  -0.233
  2 B1u   1 Au                                                                 
 -- Virtual --                   
 -0.046  -0.018   0.009   0.014   0.022   0.022   0.044   0.044
  2 B2g   2 B3g  10 Ag    3 B1u   8 B3u   8 B2u   7 B1g  11 Ag                 
  0.054   0.066   0.070   0.089   0.101   0.103   0.107   0.108
 12 Ag    9 B2u   9 B3u   2 Au   10 B3u   3 B3g   4 B1u   8 B1g                
  0.113   0.122   0.129   0.149   0.154   0.163   0.166   0.170
 10 B2u   3 B2g  13 Ag   11 B2u  14 Ag    5 B1u   3 Au    9 B1g                
  0.173   0.177   0.179   0.181   0.188   0.191   0.198   0.198
 15 Ag   12 B2u  11 B3u   4 B3g  12 B3u   6 B1u  16 Ag   13 B3u                
  0.200   0.202   0.205   0.211   0.218   0.221   0.233   0.233
 17 Ag   10 B1g  13 B2u   4 B2g   5 B2g  18 Ag    5 B3g  11 B1g                
  0.248   0.250   0.255   0.255   0.256   0.260   0.260   0.267
 12 B1g  14 B3u  19 Ag    6 B3g  14 B2u   4 Au   15 B2u   7 B1u                
  0.273   0.284   0.286   0.287   0.290   0.295   0.306   0.309
 15 B3u  16 B2u   8 B1u  17 B2u  20 Ag   16 B3u   5 Au   17 B3u                
  0.315   0.318   0.326   0.327   0.330   0.334   0.339   0.340
 13 B1g  21 Ag    9 B1u   7 B3g   6 B2g  18 B2u  14 B1g  22 Ag                 
  0.347   0.351   0.353   0.356   0.357   0.378   0.380   0.384
  7 B2g  23 Ag   19 B2u  15 B1g  18 B3u  19 B3u  24 Ag   20 B2u                
  0.384   0.401   0.404   0.412   0.414   0.419   0.428   0.430
  8 B3g   9 B3g   8 B2g  21 B2u   6 Au   16 B1g  10 B1u  20 B3u                
  0.431   0.438   0.439   0.440   0.442   0.448   0.455   0.456
  7 Au   11 B1u  17 B1g  18 B1g  21 B3u  25 Ag   22 B2u  26 Ag                 
  0.468   0.475   0.476   0.486   0.492   0.493   0.494   0.505
 22 B3u  27 Ag   10 B3g  23 B2u  28 Ag    9 B2g  12 B1u  11 B3g                
  0.506   0.509   0.515   0.517   0.527   0.541   0.542   0.543
 23 B3u  19 B1g  29 Ag   24 B2u   8 Au   10 B2g  30 Ag   20 B1g                
  0.546   0.548   0.552   0.554   0.560   0.560   0.561   0.561
 25 B2u  12 B3g  13 B1u  24 B3u  25 B3u  26 B2u  31 Ag   11 B2g                
  0.563   0.570   0.583   0.587   0.591   0.595   0.611   0.616
  9 Au   21 B1g  26 B3u  10 Au   14 B1u  27 B2u  32 Ag   28 B2u                
  0.618   0.620   0.620   0.622   0.644   0.645   0.647   0.656
 22 B1g  23 B1g  13 B3g  12 B2g  11 Au   27 B3u  29 B2u  33 Ag                 
  0.689   0.692   0.697   0.698   0.704   0.721   0.727   0.735
 24 B1g  28 B3u  30 B2u  34 Ag   15 B1u  31 B2u  25 B1g  13 B2g                
  0.744   0.747   0.748   0.751   0.755   0.764   0.764   0.769
 16 B1u  29 B3u  12 Au   35 Ag   32 B2u  17 B1u  36 Ag   26 B1g                
  0.771   0.774   0.780   0.798   0.807   0.815   0.819   0.830
 14 B3g  14 B2g  30 B3u  27 B1g  33 B2u  28 B1g  15 B2g  37 Ag                 
  0.849   0.850   0.864   0.865   0.866   0.877   0.878   0.878
 15 B3g  31 B3u  32 B3u  38 Ag   18 B1u  33 B3u  16 B3g  13 Au                 
  0.885   0.897   0.902   0.905   0.922   0.934   0.935   0.936
 29 B1g  39 Ag   34 B2u  19 B1u  16 B2g  30 B1g  34 B3u  14 Au                 
  0.937   0.950   0.960   0.961   0.963   0.964   0.972   0.992
 35 B2u  17 B3g  40 Ag   36 B2u  35 B3u  20 B1u  41 Ag   31 B1g                
  1.009   1.009   1.014   1.016   1.017   1.068   1.069   1.079
 15 Au   42 Ag   17 B2g  37 B2u  18 B3g  38 B2u  18 B2g  16 Au                 
  1.079   1.082   1.092   1.114   1.118   1.121   1.124   1.128
 36 B3u  32 B1g  43 Ag   37 B3u  39 B2u  44 Ag   19 B2g  21 B1u                
  1.132   1.164   1.170   1.184   1.187   1.190   1.191   1.199
 19 B3g  33 B1g  22 B1u  45 Ag   17 Au   20 B3g  38 B3u  18 Au                 
  1.199   1.214   1.225   1.232   1.235   1.241   1.245   1.258
 40 B2u  34 B1g  21 B3g  46 Ag   41 B2u  23 B1u  35 B1g  39 B3u                
  1.277   1.283   1.299   1.307   1.316   1.322   1.327   1.350
 47 Ag   42 B2u  36 B1g  20 B2g  40 B3u  43 B2u  41 B3u  19 Au                 
  1.354   1.369   1.372   1.383   1.387   1.426   1.426   1.447
 48 Ag   42 B3u  37 B1g  44 B2u  49 Ag   50 Ag   45 B2u  38 B1g                
  1.454   1.470   1.475   1.487   1.521   1.531   1.540   1.553
 51 Ag   43 B3u  22 B3g  39 B1g  44 B3u  40 B1g  23 B3g  46 B2u                
  1.566   1.576   1.590   1.606   1.628   1.665   1.665   1.665
 52 Ag   41 B1g  47 B2u  45 B3u  20 Au   46 B3u  42 B1g  24 B1u                
  1.689   1.695   1.728   1.731   1.734   1.735   1.758   1.761
 48 B2u  53 Ag   43 B1g  49 B2u  54 Ag   25 B1u  47 B3u  21 B2g                
  1.776   1.787   1.828   1.838   1.843   1.867   1.870   1.872
 50 B2u  22 B2g  26 B1u  44 B1g  55 Ag   24 B3g  23 B2g  48 B3u                
  1.873   1.877   1.908   1.912   1.917   1.932   1.944   1.950
 56 Ag   51 B2u  49 B3u  21 Au   25 B3g  45 B1g  27 B1u  50 B3u                
  1.957   1.959   1.959   1.970   1.989   1.992   2.011   2.016
 52 B2u  24 B2g  57 Ag   28 B1u  46 B1g  58 Ag   59 Ag   25 B2g                
  2.020   2.026   2.041   2.047   2.054   2.075   2.085   2.090
 22 Au   51 B3u  53 B2u  29 B1u  23 Au   52 B3u  30 B1u  26 B3g                
  2.102   2.102   2.106   2.116   2.125   2.130   2.138   2.140
 47 B1g  54 B2u  60 Ag   26 B2g  31 B1u  24 Au   48 B1g  27 B3g                
  2.148   2.152   2.174   2.175   2.175   2.177   2.183   2.238
 27 B2g  55 B2u  61 Ag   53 B3u  32 B1u  28 B2g  28 B3g  62 Ag                 
  2.245   2.246   2.251   2.258   2.285   2.289   2.305   2.316
 29 B3g  25 Au   54 B3u  56 B2u  63 Ag   29 B2g  49 B1g  57 B2u                
  2.319   2.320   2.320   2.321   2.324   2.336   2.352   2.363
 33 B1u  55 B3u  50 B1g  26 Au   30 B3g  58 B2u  30 B2g  27 Au                 
  2.365   2.366   2.388   2.399   2.401   2.429   2.439   2.455
 51 B1g  56 B3u  59 B2u  64 Ag   57 B3u  58 B3u  31 B3g  34 B1u                
  2.460   2.476   2.498   2.500   2.515   2.531   2.560   2.565
 65 Ag   52 B1g  28 Au   60 B2u  31 B2g  66 Ag   35 B1u  67 Ag                 
  2.570   2.588   2.590   2.591   2.592   2.594   2.611   2.614
 32 B3g  33 B3g  68 Ag   53 B1g  59 B3u  61 B2u  32 B2g  36 B1u                
  2.616   2.617   2.639   2.646   2.646   2.667   2.682   2.694
 69 Ag   54 B1g  29 Au   60 B3u  37 B1u  30 Au   62 B2u  33 B2g                
  2.700   2.703   2.708   2.712   2.722   2.738   2.740   2.744
 61 B3u  55 B1g  56 B1g  70 Ag   34 B3g  34 B2g  31 Au   38 B1u                
  2.753   2.754   2.756   2.757   2.765   2.772   2.783   2.791
 71 Ag   35 B3g  63 B2u  62 B3u  32 Au   64 B2u  57 B1g  72 Ag                 
  2.795   2.801   2.812   2.814   2.815   2.819   2.852   2.857
 65 B2u  36 B3g  63 B3u  39 B1u  66 B2u  58 B1g  73 Ag   64 B3u                
  2.865   2.870   2.872   2.877   2.882   2.888   2.905   2.919
 65 B3u  35 B2g  33 Au   59 B1g  67 B2u  37 B3g  74 Ag   68 B2u                
  2.925   2.969   2.979   2.992   2.995   3.003   3.014   3.031
 60 B1g  61 B1g  40 B1u  69 B2u  66 B3u  75 Ag   62 B1g  70 B2u                
  3.045   3.069   3.074   3.086   3.121   3.130   3.138   3.152
 36 B2g  76 Ag   67 B3u  38 B3g  71 B2u  77 Ag   63 B1g  68 B3u                
  3.177   3.208   3.214   3.244   3.266   3.284   3.295   3.303
 34 Au   35 Au   72 B2u  39 B3g  78 Ag   41 B1u  64 B1g  69 B3u                
  3.311   3.332   3.335   3.367   3.370   3.371   3.398   3.416
 79 Ag   37 B2g  70 B3u  42 B1u  65 B1g  73 B2u  80 Ag   66 B1g                
  3.422   3.430   3.453   3.463   3.466   3.484   3.485   3.496
 74 B2u  71 B3u  36 Au   67 B1g  40 B3g  43 B1u  81 Ag   82 Ag                 
  3.501   3.524   3.531   3.545   3.548   3.576   3.611   3.623
 72 B3u  73 B3u  68 B1g  38 B2g  75 B2u  76 B2u  41 B3g  69 B1g                
  3.632   3.648   3.667   3.668   3.686   3.713   3.756   3.775
 83 Ag   39 B2g  74 B3u  42 B3g  37 Au   44 B1u  38 Au   84 Ag                 
  3.785   3.792   3.796   3.810   3.835   3.887   3.914   3.939
 70 B1g  40 B2g  77 B2u  43 B3g  75 B3u  85 Ag   45 B1u  76 B3u                
  3.998   4.048   4.062   4.091   4.120   4.129   4.133   4.139
 39 Au   78 B2u  71 B1g  79 B2u  77 B3u  80 B2u  44 B3g  86 Ag                 
  4.159   4.201   4.233   4.268   4.281   4.303   4.311   4.340
 72 B1g  87 Ag   73 B1g  81 B2u  78 B3u  40 Au   88 Ag   74 B1g                
  4.342   4.384   4.499   4.533   4.559   4.567   4.606   4.622
 45 B3g  82 B2u  83 B2u  79 B3u  75 B1g  89 Ag   80 B3u  84 B2u                
  4.672   4.700   4.705   4.790   4.815   4.824   4.853   4.905
 90 Ag   76 B1g  41 B2g  85 B2u  91 Ag   81 B3u  46 B1u  82 B3u                
  4.920   4.961   4.961   4.995   5.002   5.006   5.011   5.027
 42 B2g  47 B1u  77 B1g  92 Ag   78 B1g  83 B3u  86 B2u  43 B2g                
  5.076   5.114   5.123   5.127   5.130   5.159   5.161   5.161
 48 B1u  87 B2u  93 Ag   44 B2g  46 B3g  49 B1u  84 B3u  41 Au                 
  5.180   5.219   5.223   5.224   5.228   5.249   5.262   5.264
 94 Ag   47 B3g  42 Au   50 B1u  79 B1g  88 B2u  85 B3u  95 Ag                 
  5.279   5.280   5.284   5.296   5.331   5.349   5.365   5.368
 80 B1g  43 Au   89 B2u  86 B3u  81 B1g  45 B2g  96 Ag   82 B1g                
  5.369   5.395   5.419   5.452   5.455   5.465   5.515   5.515
 46 B2g  51 B1u  90 B2u  48 B3g  52 B1u  97 Ag   87 B3u  49 B3g                
  5.524   5.531   5.532   5.563   5.563   5.581   5.594   5.600
 47 B2g  44 Au   53 B1u  48 B2g  91 B2u  50 B3g  45 Au   83 B1g                
  5.605   5.646   5.648   5.660   5.660   5.694   5.696   5.709
 98 Ag   99 Ag   49 B2g  92 B2u  88 B3u  54 B1u  84 B1g  46 Au                 
  5.711   5.757   5.758   5.809   5.830   5.848   5.863   5.870
 51 B3g  89 B3u  55 B1u  47 Au   52 B3g  93 B2u  90 B3u  53 B3g                
  5.913   5.923   5.927   5.935   5.945   5.946   5.949   5.950
 85 B1g  50 B2g  91 B3u  48 Au   56 B1u  94 B2u  51 B2g  54 B3g                
  5.951   5.964   5.985   6.011   6.042   6.043   6.054   6.075
100 Ag   92 B3u 101 Ag   57 B1u  58 B1u 102 Ag   86 B1g  49 Au                 
  6.077   6.079   6.088   6.103   6.112   6.122   6.126   6.126
 95 B2u  52 B2g 103 Ag   93 B3u  53 B2g  55 B3g 104 Ag   96 B2u                
  6.129   6.146   6.151   6.152   6.152   6.154   6.174   6.189
 87 B1g  50 Au   59 B1u  94 B3u  54 B2g  56 B3g  51 Au   97 B2u                
  6.215   6.220   6.236   6.245   6.261   6.264   6.277   6.283
105 Ag   57 B3g  95 B3u  88 B1g 106 Ag   60 B1u  89 B1g  55 B2g                
  6.283   6.298   6.314   6.315   6.318   6.336   6.341   6.341
 96 B3u  98 B2u  52 Au   61 B1u 107 Ag   99 B2u  97 B3u  90 B1g                
  6.350   6.369   6.382   6.387   6.388   6.389   6.399   6.410
100 B2u  91 B1g  58 B3g  98 B3u 101 B2u  56 B2g 108 Ag  109 Ag                 
  6.429   6.441   6.452   6.469   6.478   6.480   6.492   6.493
 53 Au   92 B1g  62 B1u  93 B1g  59 B3g  99 B3u  54 Au  102 B2u                
  6.522   6.543   6.546   6.554   6.559   6.568   6.586   6.612
110 Ag   63 B1u 111 Ag   94 B1g 100 B3u  57 B2g 101 B3u 103 B2u                
  6.618   6.632   6.633   6.644   6.650   6.650   6.674   6.680
104 B2u  55 Au  112 Ag   60 B3g 105 B2u  58 B2g  95 B1g  64 B1u                
  6.713   6.717   6.735   6.742   6.745   6.745   6.746   6.752
102 B3u  96 B1g 113 Ag  106 B2u  56 Au   61 B3g  97 B1g  65 B1u                
  6.763   6.785   6.788   6.821   6.828   6.838   6.851   6.858
114 Ag   59 B2g  62 B3g 107 B2u  66 B1u 103 B3u  60 B2g 104 B3u                
  6.868   6.883   6.885   6.899   6.918   6.955   6.971   7.016
 57 Au   63 B3g 108 B2u  98 B1g  61 B2g 115 Ag   99 B1g  67 B1u                
  7.018   7.032   7.044   7.051   7.056   7.102   7.105   7.107
 58 Au  100 B1g  59 Au  109 B2u  64 B3g 116 Ag  105 B3u  65 B3g                
  7.110   7.158   7.166   7.169   7.187   7.231   7.274   7.301
101 B1g  62 B2g  66 B3g  68 B1u 117 Ag   60 Au  110 B2u 111 B2u                
  7.323   7.343   7.361   7.378   7.406   7.406   7.424   7.435
106 B3u 102 B1g 107 B3u 118 Ag   69 B1u 112 B2u  61 Au  119 Ag                 
  7.454   7.491   7.504   7.506   7.512   7.536   7.554   7.554
108 B3u 103 B1g 109 B3u  63 B2g 113 B2u 104 B1g  70 B1u  64 B2g                
  7.556   7.567   7.580   7.588   7.598   7.636   7.673   7.674
120 Ag  110 B3u 114 B2u  67 B3g  62 Au  105 B1g 115 B2u 111 B3u                
  7.697   7.712   7.730   7.734   7.741   7.744   7.774   7.778
121 Ag   68 B3g 116 B2u  65 B2g  71 B1u 122 Ag  117 B2u 106 B1g                
  7.836   7.844   7.847   7.878   7.923   7.927   7.943   7.953
 63 Au  123 Ag  124 Ag   72 B1u 118 B2u 112 B3u 113 B3u 107 B1g                
  7.960   7.979   7.980   7.995   8.026   8.076   8.086   8.123
 69 B3g  66 B2g  64 Au  125 Ag  119 B2u 108 B1g 114 B3u  70 B3g                
  8.145   8.146   8.151   8.160   8.166   8.182   8.186   8.191
115 B3u  67 B2g 109 B1g  73 B1u  65 Au  126 Ag   74 B1u 110 B1g                
  8.204   8.210   8.214   8.215   8.245   8.247   8.248   8.293
 71 B3g 120 B2u 116 B3u 127 Ag  121 B2u  66 Au   72 B3g 111 B1g                
  8.303   8.323   8.323   8.326   8.327   8.333   8.349   8.374
128 Ag   67 Au   73 B3g  68 B2g 122 B2u  75 B1u 117 B3u 129 Ag                 
  8.381   8.408   8.426   8.430   8.452   8.458   8.465   8.481
 69 B2g 112 B1g 130 Ag  123 B2u  76 B1u 118 B3u  70 B2g  68 Au                 
  8.482   8.485   8.506   8.516   8.536   8.542   8.550   8.555
113 B1g  74 B3g  77 B1u 114 B1g 124 B2u  71 B2g 119 B3u 131 Ag                 
  8.587   8.594   8.606   8.607   8.620   8.669   8.676   8.730
125 B2u  69 Au   75 B3g 115 B1g 120 B3u  76 B3g 116 B1g  70 Au                 
  8.748   8.763   8.773   8.779   8.798   8.843   8.849   8.857
 72 B2g  78 B1u 121 B3u 132 Ag   77 B3g 126 B2u 117 B1g 133 Ag                 
  8.868   8.901   8.927   8.954   8.954   8.975   8.984   9.004
127 B2u 122 B3u 128 B2u  71 Au  118 B1g  72 Au   78 B3g 134 Ag                 
  9.021   9.125   9.138   9.278   9.371   9.402   9.437   9.540
123 B3u 135 Ag  119 B1g 129 B2u 120 B1g 136 Ag  124 B3u 130 B2u                
  9.566   9.584   9.700   9.701   9.701   9.746   9.759   9.763
125 B3u 137 Ag  138 Ag   73 B2g  79 B1u 131 B2u 126 B3u 121 B1g                
  9.782   9.785   9.825   9.892   9.894   9.897   9.948   9.951
 79 B3g  73 Au  122 B1g 127 B3u 132 B2u 139 Ag   80 B1u  74 B2g                
  9.981   9.998  10.010  10.071  10.099  10.129  10.172  10.187
123 B1g 128 B3u 133 B2u 134 B2u 140 Ag  124 B1g 135 B2u  74 Au                 
 10.204  10.271  10.309  10.344  10.424  10.446  10.453  10.476
 80 B3g 136 B2u 125 B1g 141 Ag  129 B3u 142 Ag  137 B2u 130 B3u                
 10.628  10.673  10.754  10.768  10.781  10.820  10.934  11.564
126 B1g 138 B2u 131 B3u 127 B1g 139 B2u 128 B1g 143 Ag  129 B1g                
 11.689  12.338  12.369  12.722  12.783  12.899  12.985  13.210
140 B2u 144 Ag  132 B3u 130 B1g 141 B2u 145 Ag  133 B3u 142 B2u                
 13.242  28.117  28.332  28.537  28.592  28.605  28.902  28.970
131 B1g 146 Ag  134 B3u 143 B2u 147 Ag  132 B1g 144 B2u 135 B3u                
 29.135  29.301  29.466 147.354 147.556 147.750 147.779 147.801
148 Ag  133 B1g 145 B2u 149 Ag  136 B3u 146 B2u 134 B1g 150 Ag                 
148.037 148.121 148.286 148.465 148.640
147 B2u 137 B3u 151 Ag  135 B1g 148 B2u                                        
 --------------------------------------------------------------
 
          Ground-State Mulliken Net Atomic Charges

     Atom                 Charge (a.u.)
  ----------------------------------------
      1 C                    -0.317103
      2 C                    -0.317103
      3 C                    -0.102916
      4 C                     0.076982
      5 C                     0.076982
      6 C                    -0.102916
      7 C                    -0.102916
      8 C                    -0.317103
      9 C                    -0.317103
     10 C                    -0.102916
     11 H                     0.207109
     12 H                     0.207109
     13 H                     0.174420
     14 H                     0.174420
     15 H                     0.174420
     16 H                     0.207109
     17 H                     0.207109
     18 H                     0.174420
  ----------------------------------------
  Sum of atomic charges =     0.000000

 -----------------------------------------------------------------
                    Cartesian Multipole Moments
 -----------------------------------------------------------------
    Charge (ESU x 10^10)
                 0.0000
    Dipole Moment (Debye)
         X       0.0000      Y      -0.0000      Z       0.0000
       Tot       0.0000
    Quadrupole Moments (Debye-Ang)
        XX     -51.3020     XY       0.0000     YY     -51.5340
        XZ      -0.0000     YZ      -0.0000     ZZ     -63.9060
    Octopole Moments (Debye-Ang^2)
       XXX       0.0000    XXY      -0.0000    XYY       0.0000
       YYY      -0.0000    XXZ       0.0000    XYZ      -0.0000
       YYZ       0.0000    XZZ      -0.0000    YZZ      -0.0000
       ZZZ      -0.0000
    Hexadecapole Moments (Debye-Ang^3)
      XXXX   -1087.8229   XXXY       0.0000   XXYY    -267.5137
      XYYY       0.0000   YYYY    -483.0925   XXXZ      -0.0000
      XXYZ       0.0000   XYYZ      -0.0000   YYYZ      -0.0000
      XXZZ    -240.8857   XYZZ       0.0000   YYZZ    -113.4224
      XZZZ       0.0000   YZZZ      -0.0000   ZZZZ     -74.8870
 -----------------------------------------------------------------
Archival summary:
1\1\n0107.etna0\SP\ProcedureUnspecified\BasisUnspecified\108\jhansonm\WedAug718:11:202019WedAug718:11:202019\0\\#,ProcedureUnspecified,BasisUnspecified,\\0,1\C\C,1,1.41925\H,2,1.09213,1,118.786\C,2,1.37487,1,120.872,3,180,0\H,4,1.09149,2,120.033,1,180,0\C,4,1.41464,2,120.265,1,-0,0\H,6,1.09149,4,119.702,2,-180,0\C,6,1.37487,4,120.265,2,0,0\H,8,1.09213,6,120.342,4,180,0\C,8,1.41925,6,120.872,4,-0,0\C,10,1.41925,8,122.274,6,-180,0\H,11,1.09213,10,118.786,8,-0,0\C,11,1.37487,10,120.872,8,180,0\H,13,1.09149,11,120.033,10,-180,0\C,13,1.41464,11,120.265,10,-0,0\H,15,1.09149,13,119.702,11,-180,0\C,15,1.37487,13,120.265,11,-0,0\H,17,1.09213,15,120.342,13,-180,0\\\@

 Total job time:  1280.81s(wall), 6187.98s(cpu) 
 Wed Aug  7 18:11:20 2019

        *************************************************************
        *                                                           *
        *  Thank you very much for using Q-Chem.  Have a nice day.  *
        *                                                           *
        *************************************************************


0 sent ACK to 0 
now end server 0 ... 
cleanup process ... done

Running Job 2 of 2 PBE0.def2-QZVPD.in
qchem PBE0.def2-QZVPD.in_17692.1 ./QC_SCR/temp/ 4
mpirun -f ./temphostfile -n 4 /global/home/groups-sw/nano/software/sl-7.x86_64/qchem/5.1.2/exe/qcprog.exe PBE0.def2-QZVPD.in_17692.1 ./QC_SCR/temp/

Process 0 of 4 is on n0107.etna0 - thread support 0
Process 1 of 4 is on n0107.etna0 - thread support 0
Process 2 of 4 is on n0107.etna0 - thread support 0
Process 3 of 4 is on n0107.etna0 - thread support 0
initial socket setup ...start
initial socket setup ...done 
now start server 0 ... 
Check license passed

                  Welcome to Q-Chem
     A Quantum Leap Into The Future Of Chemistry


 Q-Chem 5.1, Q-Chem, Inc., Pleasanton, CA (2018)

 Yihan Shao,  Zhengting Gan,  E. Epifanovsky,  A. T. B. Gilbert,  M. Wormit,  
 J. Kussmann,  A. W. Lange,  A. Behn,  Jia Deng,  Xintian Feng,  D. Ghosh,  
 M. Goldey,  P. R. Horn,  L. D. Jacobson,  I. Kaliman,  T. Kus,  A. Landau,  
 Jie Liu,  E. I. Proynov,  R. M. Richard,  R. P. Steele,  E. J. Sundstrom,  
 H. L. Woodcock III,  P. M. Zimmerman,  D. Zuev,  B. Albrecht,  E. Alguire,  
 S. A. Baeppler,  D. Barton,  Z. Benda,  Y. A. Bernard,  E. J. Berquist,  
 K. B. Bravaya,  H. Burton,  D. Casanova,  Chun-Min Chang,  Yunqing Chen,  
 A. Chien,  K. D. Closser,  M. P. Coons,  S. Coriani,  S. Dasgupta,  
 A. L. Dempwolff,  M. Diedenhofen,  Hainam Do,  R. G. Edgar,  Po-Tung Fang,  
 S. Faraji,  S. Fatehi,  Qingguo Feng,  K. D. Fenk,  J. Fosso-Tande,  
 J. Gayvert,  Qinghui Ge,  A. Ghysels,  G. Gidofalvi,  J. Gomes,  
 J. Gonthier,  A. Gunina,  D. Hait,  M. W. D. Hanson-Heine,  
 P. H. P. Harbach,  A. W. Hauser,  J. E. Herr,  E. G. Hohenstein,  
 Z. C. Holden,  Kerwin Hui,  B. C. Huynh,  T.-C. Jagau,  Hyunjun Ji,  
 B. Kaduk,  K. Khistyaev,  Jaehoon Kim,  P. Klunzinger,  K. Koh,  
 D. Kosenkov,  L. Koulias,  T. Kowalczyk,  C. M. Krauter,  A. Kunitsa,  
 Ka Un Lao,  A. Laurent,  K. V. Lawler,  Joonho Lee,  D. Lefrancois,  
 S. Lehtola,  D. S. Levine,  Yi-Pei Li,  You-Sheng Lin,  Fenglai Liu,  
 E. Livshits,  A. Luenser,  P. Manohar,  E. Mansoor,  S. F. Manzer,  
 Shan-Ping Mao,  Yuezhi Mao,  N. Mardirossian,  A. V. Marenich,  
 T. Markovich,  L. A. Martinez-Martinez,  S. A. Maurer,  N. J. Mayhall,  
 S. C. McKenzie,  J.-M. Mewes,  A. F. Morrison,  J. W. Mullinax,  K. Nanda,  
 T. S. Nguyen-Beck,  R. Olivares-Amaya,  J. A. Parkhill,  T. M. Perrine,  
 F. Plasser,  P. Pokhilko,  S. Prager,  A. Prociuk,  E. Ramos,  D. R. Rehn,  
 F. Rob,  M. Schneider,  N. Sergueev,  S. M. Sharada,  S. Sharma,  
 D. W. Small,  T. Stauch,  T. Stein,  Yu-Chuan Su,  A. J. W. Thom,  
 A. Tkatchenko,  T. Tsuchimochi,  N. M. Tubman,  L. Vogt,  M. L. Vidal,  
 O. Vydrov,  M. A. Watson,  J. Wenzel,  M. de Wergifosse,  T. A. Wesolowski,  
 A. White,  J. Witte,  A. Yamada,  Jun Yang,  K. Yao,  S. Yeganeh,  
 S. R. Yost,  Zhi-Qiang You,  A. Zech,  Igor Ying Zhang,  Xing Zhang,  
 Yan Zhao,  Ying Zhu,  B. R. Brooks,  G. K. L. Chan,  C. J. Cramer,  
 M. S. Gordon,  W. J. Hehre,  A. Klamt,  M. W. Schmidt,  C. D. Sherrill,  
 D. G. Truhlar,  A. Aspuru-Guzik,  R. Baer,  A. T. Bell,  N. A. Besley,  
 Jeng-Da Chai,  A. E. DePrince, III,  R. A. DiStasio Jr.,  A. Dreuw,  
 B. D. Dunietz,  T. R. Furlani,  Chao-Ping Hsu,  Yousung Jung,  Jing Kong,  
 D. S. Lambrecht,  WanZhen Liang,  C. Ochsenfeld,  V. A. Rassolov,  
 L. V. Slipchenko,  J. E. Subotnik,  T. Van Voorhis,  J. M. Herbert,  
 A. I. Krylov,  P. M. W. Gill,  M. Head-Gordon

 Contributors to earlier versions of Q-Chem not listed above: 
 R. D. Adamson,  B. Austin,  J. Baker,  G. J. O. Beran,  K. Brandhorst,  
 S. T. Brown,  E. F. C. Byrd,  A. K. Chakraborty,  C.-L. Cheng,  
 Siu Hung Chien,  D. M. Chipman,  D. L. Crittenden,  H. Dachsel,  
 R. J. Doerksen,  A. D. Dutoi,  L. Fusti-Molnar,  W. A. Goddard III,  
 A. Golubeva-Zadorozhnaya,  S. R. Gwaltney,  G. Hawkins,  A. Heyden,  
 S. Hirata,  G. Kedziora,  F. J. Keil,  C. Kelley,  Jihan Kim,  R. A. King,  
 R. Z. Khaliullin,  P. P. Korambath,  W. Kurlancheek,  A. M. Lee,  M. S. Lee,  
 S. V. Levchenko,  Ching Yeh Lin,  D. Liotard,  R. C. Lochan,  I. Lotan,  
 P. E. Maslen,  N. Nair,  D. P. O'Neill,  D. Neuhauser,  E. Neuscamman,  
 C. M. Oana,  R. Olson,  B. Peters,  R. Peverati,  P. A. Pieniazek,  
 Y. M. Rhee,  J. Ritchie,  M. A. Rohrdanz,  E. Rosta,  N. J. Russ,  
 H. F. Schaefer III,  N. E. Schultz,  N. Shenvi,  A. C. Simmonett,  A. Sodt,  
 D. Stuck,  K. S. Thanthiriwatte,  V. Vanovschi,  Tao Wang,  A. Warshel,  
 C. F. Williams,  Q. Wu,  X. Xu,  W. Zhang

 Please cite Q-Chem as follows:
 Y. Shao et al., Mol. Phys. 113, 184-215 (2015)
 DOI: 10.1080/00268976.2014.952696

 Q-Chem 5.1.2 for Intel X86 EM64T Linux

 Parts of Q-Chem use Armadillo 8.300.2 (Tropical Shenanigans).
 http://arma.sourceforge.net/

 Q-Chem begins on Wed Aug  7 18:11:23 2019  

Host: 
0

     Scratch files written to ./QC_SCR/temp.0//
 Dec218 |scratch|qcdevops|jenkins|workspace|build_RNUM 6439   
 Parallel job on  4  processors
Processing $rem in /global/home/groups-sw/nano/software/sl-7.x86_64/qchem/5.1.2/config/preferences.
 MEM_TOTAL  2000 
Input Ideriv = 2
Curr. Ideriv = -1
Max.  Ideriv = 2

Checking the input file for inconsistencies... 	...done.

--------------------------------------------------------------
User input:
--------------------------------------------------------------
$molecule
-1 2
C	2.4304274707	-0.7073198348	0.0000000000
C	2.4304274707	0.7073198348	0.0000000000
C	1.2429414410	1.4002518046	0.0000000000
C	0.0000000000	0.7151534941	0.0000000000
C	0.0000000000	-0.7151534941	0.0000000000
C	1.2429414410	-1.4002518046	0.0000000000
C	-1.2429414410	-1.4002518046	0.0000000000
C	-2.4304274707	-0.7073198348	0.0000000000
C	-2.4304274707	0.7073198348	0.0000000000
C	-1.2429414410	1.4002518046	0.0000000000
H	3.3785059800	-1.2481439436	0.0000000000
H	3.3785059800	1.2481439436	0.0000000000
H	1.2414657771	2.4923775989	0.0000000000
H	1.2414657771	-2.4923775989	0.0000000000
H	-1.2414657771	-2.4923775989	0.0000000000
H	-3.3785059800	-1.2481439436	0.0000000000
H	-3.3785059800	1.2481439436	0.0000000000
H	-1.2414657771	2.4923775989	0.0000000000
$end
$rem
JOBTYPE 		SP
BASIS 			def2-QZVPD
BASIS2 			def2-SVP ! just to ensure convergence
METHOD			PBE0
!SCF OPTIONS
MAX_SCF_CYCLES          400
SCF_CONVERGENCE         8
GEN_SCFMAN_HYBRID_ALGO  TRUE
GEN_SCFMAN_ALGO_1       DIIS
GEN_SCFMAN_ITER_1       50
GEN_SCFMAN_ALGO_2       GDM
MEM_TOTAL               20000
$end
--------------------------------------------------------------
 ----------------------------------------------------------------
             Standard Nuclear Orientation (Angstroms)
    I     Atom           X                Y                Z
 ----------------------------------------------------------------
    1      C       2.4304274707    -0.7073198348    -0.0000000000
    2      C       2.4304274707     0.7073198348     0.0000000000
    3      C       1.2429414410     1.4002518046     0.0000000000
    4      C       0.0000000000     0.7151534941     0.0000000000
    5      C       0.0000000000    -0.7151534941    -0.0000000000
    6      C       1.2429414410    -1.4002518046    -0.0000000000
    7      C      -1.2429414410    -1.4002518046    -0.0000000000
    8      C      -2.4304274707    -0.7073198348    -0.0000000000
    9      C      -2.4304274707     0.7073198348     0.0000000000
   10      C      -1.2429414410     1.4002518046     0.0000000000
   11      H       3.3785059800    -1.2481439436    -0.0000000000
   12      H       3.3785059800     1.2481439436     0.0000000000
   13      H       1.2414657771     2.4923775989     0.0000000000
   14      H       1.2414657771    -2.4923775989    -0.0000000000
   15      H      -1.2414657771    -2.4923775989    -0.0000000000
   16      H      -3.3785059800    -1.2481439436    -0.0000000000
   17      H      -3.3785059800     1.2481439436     0.0000000000
   18      H      -1.2414657771     2.4923775989     0.0000000000
 ----------------------------------------------------------------
 Molecular Point Group                 D2h   NOp =  8
 Largest Abelian Subgroup              D2h   NOp =  8
 Nuclear Repulsion Energy =   457.6101939670 hartrees
 There are       35 alpha and       34 beta electrons
 Requested basis set is def2-QZVPD
 There are 278 shells and 894 basis functions

 Total QAlloc Memory Limit  20000 MB
 Mega-Array Size       188 MB
 MEM_STATIC part       192 MB
 A cutoff of  1.0D-11 yielded  32099 shell pairs
 There are    329083 function pairs (    488225 Cartesian)
 
 -------------------------------------------------------
 OpenMP Integral Computing Module                       
 Release: version 1.0, May 2013, Q-Chem Inc. Pittsburgh 
 -------------------------------------------------------
 Integral Job Info:
 Integral job number is                      11
 Integral operator is                         1
 short-range coefficients                     0
 long-range coefficients              100000000
 Omega coefficients                           0
 if combine SR and LR in K                    0
 Integral screening is                        0
 Integral computing path is                   2
 max size of driver memory is           3200000
 size of driver memory is               1704330
 size of scratch memory is             14348220
 max col of scratch BK array              50625
 max len of scratch array in speh3         2114
 max len of scratch index in speh4           50
 max int batch size is                      520
 min int batch size is                       52
 fixed nKL is                                52
 max L of basis functions is                  4
 order of int derivative is                   0
 number of shells is                        278
 number of basis is                        1094
 number of cartesian basis is              1094
 number of contracted shell pairs         32099
 number of primitive shell pairs          57590
 maxK2 (contraction) of shell pair           64
 max number of K2 of shell pair               1
 max number of CS2 of shell pair           4888
 max number of PS2 of shell pair           4888
 mem total for path MDJ                 1789328
 -------------------------------------------------------
 Smallest overlap matrix eigenvalue = 1.35E-09

 Q-Chem warning in module stvman/mkSTV.C, line 306:

 Overlap eigenvalue is smaller than square root of threshold
 Use THRESH >= 12 to get rid of this warning

 Linear dependence detected in AO basis
 Tighter screening thresholds may be required for diffuse basis sets
 Use S2THRESH > 14 and THRESH = 14 in case of SCF convergence issues
 Number of orthogonalized atomic orbitals = 879
 Maximum deviation from orthogonality = 1.266E-09

 Scale SEOQF with 1.000000e-01/1.000000e-01/1.000000e-01

 Standard Electronic Orientation quadrupole field applied
 Nucleus-field energy     =     0.0000000151 hartrees
 Requested basis set is def2-SVP
 There are 84 shells and 180 basis functions
 A cutoff of  1.0D-11 yielded   3240 shell pairs
 There are     14728 function pairs (     16405 Cartesian)
 Smallest overlap matrix eigenvalue = 2.72E-04
 Guess from superposition of atomic densities
 Warning:  Energy on first SCF cycle will be non-variational
 SAD guess density has 68.000000 electrons
 An unrestricted hybrid HF-DFT SCF calculation will be
 performed using Pulay DIIS extrapolation
 Exchange:     0.2500 Hartree-Fock + 0.7500 PBE
 Correlation:  1.0000 PBE
 Using SG-1 standard quadrature grid
 SCF converges when DIIS error is below 1.0E-04
 using 12 threads for integral computing
 -------------------------------------------------------
 OpenMP Integral computing Module                
 Release: version 1.0, May 2013, Q-Chem Inc. Pittsburgh 
 -------------------------------------------------------
 -------------------------------------------------------
 OpenMP BLAS3 based DFT computing Module                
 -------------------------------------------------------
 Inaccurate integrated density:
   Number of electrons =    69
   Numerical integral  =    68.002205404049
   Relative error      =    -1.4460791246 %
 ---------------------------------------
  Cycle       Energy         DIIS Error
 ---------------------------------------
    1    -387.7607122567      6.01E-02
    2    -384.9130794343      6.56E-03
    3    -384.9190097342      6.87E-03
    4    -385.1380509154      7.74E-04
    5    -385.1398339028      4.38E-04
    6    -385.1406987503      8.22E-05 Convergence criterion met
 ---------------------------------------
 <S^2> = 0.7606
 SCF time:  CPU 26.73 s  wall 7.24 s
 SCF   energy in the small basis set = -385.14069875
 Total energy in the small basis set = -385.14069875
 ----------------------------------------------------
  Cycle       Energy    
 ----------------------------------------------------
    1     -49.5005065364     -4.95E+01
 An unrestricted hybrid HF-DFT SCF calculation will be
 performed using Pulay DIIS extrapolation
 Exchange:     0.2500 Hartree-Fock + 0.7500 PBE
 Correlation:  1.0000 PBE
 Using SG-1 standard quadrature grid
 SCF converges when DIIS error is below 1.0E-08
Basis2 calculation detected. Using small basis as guess for larger.
SCFMinFind is unable to tell whether the solution found is close.
Resetting ReadMinima to 0 and attempting to follow guess.
SCFMinFind following SCF Guess.
 using 12 threads for integral computing
 -------------------------------------------------------
 OpenMP Integral computing Module                
 Release: version 1.0, May 2013, Q-Chem Inc. Pittsburgh 
 -------------------------------------------------------
 -------------------------------------------------------
 OpenMP BLAS3 based DFT computing Module                
 -------------------------------------------------------
 ---------------------------------------
  Cycle       Energy         DIIS Error
 ---------------------------------------
    1    -385.4511973101      1.92E-03
    2    -385.4596105440      9.69E-04
    3    -385.4282498597      9.99E-04
    4    -385.5628183646      2.38E-04
    5    -385.5689438908      1.01E-04
    6    -385.5704749646      2.14E-05
    7    -385.5706182177      6.13E-06
    8    -385.5706295380      2.42E-06
    9    -385.5706359953      7.61E-07
   10    -385.5706376739      2.29E-07
   11    -385.5706380308      3.32E-08
   12    -385.5706380336      9.01E-09 Convergence criterion met
 ---------------------------------------
 <S^2> = 0.7625
 SCF time:  CPU 8444.35 s  wall 1714.58 s
 SCF   energy in the final basis set = -385.57063803
 Total energy in the final basis set = -385.57063803
 
 --------------------------------------------------------------
             Orbital Energies (a.u.) and Symmetries
 --------------------------------------------------------------
 
 Alpha MOs, Unrestricted
 -- Occupied --                  
-10.066 -10.066 -10.055 -10.055 -10.054 -10.054 -10.043 -10.043
  1 Ag    1 B2u   2 Ag    1 B3u   2 B2u   1 B1g   2 B3u   2 B1g                
-10.043 -10.043  -0.724  -0.671  -0.621  -0.589  -0.567  -0.473
  3 B2u   3 Ag    4 Ag    3 B3u   4 B2u   5 Ag    3 B1g   4 B3u                
 -0.456  -0.441  -0.359  -0.356  -0.337  -0.289  -0.282  -0.256
  5 B2u   6 Ag    5 B3u   4 B1g   7 Ag    6 B2u   8 Ag    5 B1g                
 -0.254  -0.243  -0.239  -0.209  -0.180  -0.176  -0.169  -0.135
  6 B3u   7 B2u   1 B1u   7 B3u   1 B2g   6 B1g   9 Ag    1 B3g                
 -0.093  -0.069   0.068
  2 B1u   1 Au    2 B2g                                                        
 -- Virtual --                   
  0.125   0.132   0.133   0.150   0.152   0.153   0.169   0.172
 10 Ag    8 B3u   8 B2u   7 B1g  11 Ag    2 B3g   3 B1u   9 B2u                
  0.179   0.182   0.210   0.229   0.231   0.231   0.239   0.241
  9 B3u  12 Ag    8 B1g  10 B3u  10 B2u   3 B3g   4 B1u   2 Au                 
  0.249   0.256   0.275   0.275   0.288   0.294   0.296   0.297
  3 B2g  13 Ag   11 B2u  14 Ag    9 B1g  15 Ag    5 B1u   3 Au                 
  0.302   0.303   0.311   0.316   0.319   0.319   0.320   0.322
 11 B3u  12 B2u  12 B3u   4 B3g  13 B3u  16 Ag   10 B1g  13 B2u                
  0.322   0.331   0.333   0.347   0.349   0.358   0.362   0.369
  6 B1u  17 Ag    4 B2g  18 Ag    5 B2g  11 B1g   5 B3g  14 B3u                
  0.370   0.375   0.377   0.381   0.392   0.394   0.394   0.397
 12 B1g  14 B2u   4 Au   19 Ag   15 B2u   7 B1u  15 B3u   6 B3g                
  0.407   0.415   0.423   0.425   0.430   0.435   0.435   0.446
  8 B1u  16 B2u  20 Ag    5 Au   13 B1g  17 B2u  16 B3u   7 B3g                
  0.448   0.455   0.457   0.460   0.461   0.463   0.468   0.480
  6 B2g   9 B1u  21 Ag   18 B2u  17 B3u  14 B1g  22 Ag   18 B3u                
  0.481   0.486   0.487   0.494   0.498   0.510   0.512   0.515
  7 B2g  23 Ag   19 B2u  15 B1g   8 B3g  19 B3u  20 B2u  24 Ag                 
  0.530   0.531   0.539   0.540   0.548   0.550   0.559   0.560
  6 Au    8 B2g   9 B3g   7 Au   16 B1g  21 B2u  10 B1u  17 B1g                
  0.567   0.572   0.573   0.577   0.580   0.583   0.589   0.596
 20 B3u  18 B1g  11 B1u  22 B2u  25 Ag   21 B3u  26 Ag   22 B3u                
  0.606   0.609   0.614   0.619   0.626   0.630   0.631   0.637
 27 Ag   10 B3g  28 Ag   23 B2u   9 B2g  12 B1u  11 B3g  19 B1g                
  0.641   0.648   0.651   0.652   0.671   0.678   0.680   0.683
 23 B3u  24 B2u   8 Au   29 Ag   10 B2g  12 B3g  20 B1g  30 Ag                 
  0.683   0.687   0.691   0.694   0.695   0.698   0.700   0.706
 24 B3u  25 B2u  13 B1u  11 B2g  25 B3u  31 Ag   26 B2u   9 Au                 
  0.708   0.711   0.720   0.737   0.743   0.750   0.750   0.750
 26 B3u  21 B1g  10 Au   27 B2u  14 B1u  32 Ag   28 B2u  22 B1g                
  0.759   0.760   0.772   0.775   0.779   0.788   0.804   0.827
 13 B3g  23 B1g  12 B2g  11 Au   27 B3u  29 B2u  33 Ag   24 B1g                
  0.831   0.843   0.849   0.854   0.855   0.859   0.885   0.891
 28 B3u  34 Ag   30 B2u  25 B1g  15 B1u  31 B2u  13 B2g  12 Au                 
  0.891   0.893   0.901   0.902   0.912   0.916   0.919   0.921
 29 B3u  35 Ag   16 B1u  32 B2u  36 Ag   26 B1g  14 B3g  17 B1u                
  0.931   0.935   0.942   0.944   0.957   0.969   0.983   0.990
 14 B2g  30 B3u  27 B1g  33 B2u  28 B1g  15 B2g  37 Ag   31 B3u                
  1.005   1.011   1.015   1.022   1.023   1.024   1.024   1.027
 15 B3g  32 B3u  38 Ag   13 Au   16 B3g  33 B3u  18 B1u  29 B1g                
  1.051   1.053   1.055   1.072   1.081   1.086   1.086   1.089
 39 Ag   34 B2u  19 B1u  16 B2g  30 B1g  34 B3u  35 B2u  14 Au                 
  1.104   1.107   1.107   1.112   1.118   1.123   1.138   1.160
 17 B3g  36 B2u  40 Ag   35 B3u  41 Ag   20 B1u  31 B1g  42 Ag                 
  1.168   1.169   1.177   1.177   1.214   1.223   1.227   1.232
 15 Au   37 B2u  18 B3g  17 B2g  38 B2u  18 B2g  32 B1g  36 B3u                
  1.234   1.248   1.263   1.269   1.274   1.278   1.282   1.284
 16 Au   43 Ag   37 B3u  39 B2u  44 Ag   19 B2g  21 B1u  19 B3g                
  1.317   1.330   1.336   1.337   1.343   1.348   1.354   1.356
 33 B1g  22 B1u  17 Au   45 Ag   38 B3u  20 B3g  40 B2u  18 Au                 
  1.369   1.381   1.386   1.392   1.400   1.403   1.415   1.432
 34 B1g  21 B3g  46 Ag   41 B2u  35 B1g  23 B1u  39 B3u  47 Ag                 
  1.434   1.450   1.466   1.467   1.475   1.482   1.501   1.508
 42 B2u  36 B1g  40 B3u  20 B2g  43 B2u  41 B3u  48 Ag   19 Au                 
  1.521   1.525   1.529   1.551   1.575   1.577   1.598   1.611
 37 B1g  42 B3u  44 B2u  49 Ag   45 B2u  50 Ag   38 B1g  51 Ag                 
  1.627   1.637   1.638   1.673   1.683   1.703   1.708   1.729
 43 B3u  39 B1g  22 B3g  44 B3u  40 B1g  23 B3g  46 B2u  52 Ag                 
  1.739   1.742   1.763   1.788   1.822   1.830   1.835   1.844
 41 B1g  47 B2u  45 B3u  20 Au   42 B1g  46 B3u  24 B1u  48 B2u                
  1.859   1.888   1.897   1.899   1.904   1.921   1.930   1.940
 53 Ag   43 B1g  54 Ag   49 B2u  25 B1u  47 B3u  21 B2g  50 B2u                
  1.955   1.994   1.996   2.008   2.034   2.035   2.036   2.039
 22 B2g  44 B1g  26 B1u  55 Ag   48 B3u  56 Ag   24 B3g  23 B2g                
  2.045   2.074   2.081   2.087   2.090   2.112   2.113   2.114
 51 B2u  49 B3u  21 Au   25 B3g  45 B1g  50 B3u  27 B1u  52 B2u                
  2.124   2.126   2.138   2.144   2.156   2.177   2.184   2.188
 57 Ag   24 B2g  28 B1u  46 B1g  58 Ag   59 Ag   25 B2g  22 Au                 
  2.193   2.202   2.216   2.221   2.240   2.256   2.256   2.267
 51 B3u  53 B2u  29 B1u  23 Au   52 B3u  26 B3g  30 B1u  54 B2u                
  2.268   2.272   2.283   2.290   2.296   2.304   2.308   2.315
 47 B1g  60 Ag   26 B2g  31 B1u  24 Au   48 B1g  27 B3g  27 B2g                
  2.316   2.340   2.341   2.343   2.346   2.347   2.400   2.409
 55 B2u  61 Ag   53 B3u  32 B1u  28 B3g  28 B2g  62 Ag   25 Au                 
  2.409   2.416   2.423   2.451   2.452   2.468   2.482   2.482
 29 B3g  54 B3u  56 B2u  63 Ag   29 B2g  49 B1g  55 B3u  33 B1u                
  2.483   2.485   2.488   2.490   2.502   2.518   2.525   2.528
 57 B2u  50 B1g  26 Au   30 B3g  58 B2u  30 B2g  27 Au   51 B1g                
  2.536   2.552   2.566   2.567   2.597   2.607   2.621   2.626
 56 B3u  59 B2u  57 B3u  64 Ag   58 B3u  31 B3g  34 B1u  65 Ag                 
  2.639   2.660   2.662   2.677   2.698   2.721   2.733   2.737
 52 B1g  28 Au   60 B2u  31 B2g  66 Ag   35 B1u  67 Ag   32 B3g                
  2.750   2.754   2.756   2.758   2.761   2.776   2.777   2.781
 33 B3g  53 B1g  68 Ag   59 B3u  61 B2u  32 B2g  36 B1u  54 B1g                
  2.782   2.801   2.813   2.816   2.834   2.846   2.856   2.865
 69 Ag   29 Au   60 B3u  37 B1u  30 Au   62 B2u  33 B2g  61 B3u                
  2.866   2.872   2.874   2.887   2.905   2.905   2.911   2.915
 55 B1g  56 B1g  70 Ag   34 B3g  34 B2g  31 Au   38 B1u  62 B3u                
  2.916   2.916   2.924   2.928   2.930   2.949   2.957   2.958
 35 B3g  71 Ag   63 B2u  64 B2u  32 Au   57 B1g  65 B2u  72 Ag                 
  2.971   2.975   2.979   2.979   2.980   3.017   3.017   3.031
 36 B3g  63 B3u  58 B1g  66 B2u  39 B1u  64 B3u  73 Ag   65 B3u                
  3.032   3.037   3.039   3.046   3.052   3.066   3.083   3.091
 35 B2g  33 Au   59 B1g  67 B2u  37 B3g  74 Ag   68 B2u  60 B1g                
  3.131   3.149   3.159   3.162   3.171   3.178   3.202   3.215
 61 B1g  40 B1u  69 B2u  66 B3u  75 Ag   62 B1g  70 B2u  36 B2g                
  3.232   3.236   3.257   3.288   3.299   3.307   3.317   3.342
 76 Ag   67 B3u  38 B3g  71 B2u  77 Ag   63 B1g  68 B3u  34 Au                 
  3.380   3.381   3.412   3.440   3.456   3.463   3.474   3.477
 35 Au   72 B2u  39 B3g  78 Ag   41 B1u  64 B1g  69 B3u  79 Ag                 
  3.499   3.506   3.534   3.538   3.540   3.567   3.581   3.588
 37 B2g  70 B3u  42 B1u  73 B2u  65 B1g  80 Ag   66 B1g  74 B2u                
  3.598   3.624   3.630   3.638   3.654   3.656   3.664   3.666
 71 B3u  36 Au   67 B1g  40 B3g  81 Ag   43 B1u  72 B3u  82 Ag                 
  3.692   3.693   3.712   3.722   3.739   3.784   3.791   3.798
 68 B1g  73 B3u  75 B2u  38 B2g  76 B2u  41 B3g  69 B1g  83 Ag                 
  3.821   3.838   3.840   3.856   3.888   3.929   3.943   3.956
 39 B2g  74 B3u  42 B3g  37 Au   44 B1u  38 Au   84 Ag   70 B1g                
  3.961   3.966   3.982   4.003   4.060   4.085   4.111   4.170
 40 B2g  77 B2u  43 B3g  75 B3u  85 Ag   45 B1u  76 B3u  39 Au                 
  4.215   4.228   4.263   4.290   4.300   4.307   4.309   4.327
 78 B2u  71 B1g  79 B2u  77 B3u  80 B2u  44 B3g  86 Ag   72 B1g                
  4.372   4.401   4.438   4.449   4.474   4.484   4.511   4.513
 87 Ag   73 B1g  81 B2u  78 B3u  40 Au   88 Ag   74 B1g  45 B3g                
  4.557   4.675   4.706   4.730   4.740   4.781   4.794   4.846
 82 B2u  83 B2u  79 B3u  75 B1g  89 Ag   80 B3u  84 B2u  90 Ag                 
  4.871   4.883   4.961   4.992   5.001   5.032   5.082   5.099
 76 B1g  41 B2g  85 B2u  91 Ag   81 B3u  46 B1u  82 B3u  42 B2g                
  5.135   5.139   5.172   5.178   5.181   5.187   5.204   5.252
 77 B1g  47 B1u  92 Ag   78 B1g  83 B3u  86 B2u  43 B2g  48 B1u                
  5.289   5.299   5.304   5.308   5.336   5.337   5.337   5.356
 87 B2u  93 Ag   44 B2g  46 B3g  84 B3u  49 B1u  41 Au   94 Ag                 
  5.397   5.400   5.402   5.403   5.425   5.439   5.442   5.455
 47 B3g  42 Au   50 B1u  79 B1g  88 B2u  85 B3u  95 Ag   80 B1g                
  5.458   5.460   5.473   5.505   5.527   5.542   5.543   5.547
 43 Au   89 B2u  86 B3u  81 B1g  45 B2g  96 Ag   82 B1g  46 B2g                
  5.571   5.594   5.628   5.631   5.640   5.692   5.692   5.700
 51 B1u  90 B2u  48 B3g  52 B1u  97 Ag   87 B3u  49 B3g  47 B2g                
  5.706   5.709   5.736   5.738   5.756   5.767   5.775   5.782
 53 B1u  44 Au   48 B2g  91 B2u  50 B3g  45 Au   83 B1g  98 Ag                 
  5.821   5.822   5.836   5.837   5.869   5.871   5.883   5.884
 49 B2g  99 Ag   92 B2u  88 B3u  54 B1u  84 B1g  51 B3g  46 Au                 
  5.932   5.933   5.983   6.007   6.023   6.035   6.046   6.090
 89 B3u  55 B1u  47 Au   52 B3g  93 B2u  90 B3u  53 B3g  85 B1g                
  6.097   6.100   6.109   6.120   6.123   6.123   6.124   6.126
 50 B2g  91 B3u  48 Au   56 B1u  54 B3g  94 B2u  51 B2g 100 Ag                 
  6.141   6.157   6.186   6.211   6.219   6.226   6.246   6.248
 92 B3u 101 Ag   57 B1u  58 B1u 102 Ag   86 B1g  49 Au   52 B2g                
  6.251   6.262   6.278   6.285   6.296   6.301   6.301   6.301
 95 B2u 103 Ag   93 B3u  53 B2g  55 B3g 104 Ag   96 B2u  87 B1g                
  6.319   6.324   6.324   6.325   6.326   6.347   6.364   6.386
 50 Au   56 B3g  94 B3u  59 B1u  54 B2g  51 Au   97 B2u 105 Ag                 
  6.395   6.410   6.417   6.433   6.437   6.450   6.456   6.459
 57 B3g  95 B3u  88 B1g 106 Ag   60 B1u  89 B1g  96 B3u  55 B2g                
  6.472   6.489   6.491   6.491   6.510   6.512   6.517   6.524
 98 B2u  52 Au   61 B1u 107 Ag   99 B2u  97 B3u  90 B1g 100 B2u                
  6.543   6.558   6.559   6.561   6.566   6.572   6.584   6.604
 91 B1g  58 B3g  98 B3u 101 B2u  56 B2g 108 Ag  109 Ag   53 Au                 
  6.615   6.631   6.644   6.655   6.655   6.665   6.668   6.697
 92 B1g  62 B1u  93 B1g  59 B3g  99 B3u 102 B2u  54 Au  110 Ag                 
  6.720   6.722   6.727   6.733   6.743   6.761   6.788   6.793
111 Ag   63 B1u  94 B1g 100 B3u  57 B2g 101 B3u 103 B2u 104 B2u                
  6.806   6.809   6.817   6.825   6.827   6.852   6.855   6.885
 55 Au  112 Ag   60 B3g 105 B2u  58 B2g  95 B1g  64 B1u 102 B3u                
  6.892   6.908   6.917   6.920   6.920   6.921   6.928   6.937
 96 B1g 113 Ag  106 B2u  61 B3g  97 B1g  56 Au   65 B1u 114 Ag                 
  6.959   6.961   6.997   7.003   7.014   7.028   7.035   7.045
 59 B2g  62 B3g 107 B2u  66 B1u 103 B3u  60 B2g 104 B3u  57 Au                 
  7.057   7.060   7.071   7.097   7.131   7.144   7.193   7.193
108 B2u  63 B3g  98 B1g  61 B2g 115 Ag   99 B1g  58 Au   67 B1u                
  7.207   7.222   7.224   7.232   7.278   7.282   7.284   7.286
100 B1g  59 Au  109 B2u  64 B3g 105 B3u 116 Ag  101 B1g  65 B3g                
  7.333   7.343   7.346   7.360   7.407   7.450   7.476   7.500
 62 B2g  66 B3g  68 B1u 117 Ag   60 Au  110 B2u 111 B2u 106 B3u                
  7.517   7.535   7.550   7.576   7.581   7.601   7.608   7.630
102 B1g 107 B3u 118 Ag   69 B1u 112 B2u  61 Au  119 Ag  108 B3u                
  7.665   7.675   7.679   7.685   7.709   7.717   7.717   7.733
103 B1g  63 B2g 109 B3u 113 B2u 104 B1g  70 B1u  64 B2g 120 Ag                 
  7.743   7.755   7.756   7.764   7.808   7.843   7.848   7.872
110 B3u 114 B2u  67 B3g  62 Au  105 B1g 111 B3u 115 B2u 121 Ag                 
  7.883   7.904   7.905   7.910   7.913   7.946   7.953   8.006
 68 B3g  65 B2g 116 B2u  71 B1u 122 Ag  117 B2u 106 B1g  63 Au                 
  8.011   8.023   8.047   8.088   8.099   8.113   8.119   8.126
123 Ag  124 Ag   72 B1u 118 B2u 112 B3u 113 B3u 107 B1g  69 B3g                
  8.147   8.148   8.165   8.197   8.245   8.257   8.287   8.310
 64 Au   66 B2g 125 Ag  119 B2u 108 B1g 114 B3u  70 B3g  67 B2g                
  8.317   8.322   8.326   8.333   8.355   8.360   8.364   8.378
115 B3u 109 B1g  73 B1u  65 Au  126 Ag  110 B1g  74 B1u 120 B2u                
  8.380   8.381   8.382   8.412   8.417   8.418   8.459   8.473
116 B3u 127 Ag   71 B3g 121 B2u  66 Au   72 B3g 111 B1g 128 Ag                 
  8.498   8.498   8.501   8.504   8.505   8.515   8.541   8.554
 67 Au  122 B2u  73 B3g  75 B1u  68 B2g 117 B3u 129 Ag   69 B2g                
  8.580   8.598   8.598   8.618   8.626   8.630   8.654   8.660
112 B1g 130 Ag  123 B2u  76 B1u 118 B3u  70 B2g 113 B1g  68 Au                 
  8.662   8.682   8.686   8.709   8.720   8.723   8.730   8.757
 74 B3g  77 B1u 114 B1g 124 B2u  71 B2g 119 B3u 131 Ag  125 B2u                
  8.760   8.772   8.775   8.793   8.842   8.849   8.908   8.914
 69 Au   75 B3g 115 B1g 120 B3u  76 B3g 116 B1g  70 Au   72 B2g                
  8.931   8.945   8.951   8.975   9.014   9.024   9.031   9.044
 78 B1u 121 B3u 132 Ag   77 B3g 126 B2u 117 B1g 133 Ag  127 B2u                
  9.075   9.101   9.122   9.129   9.147   9.151   9.170   9.188
122 B3u 128 B2u  71 Au  118 B1g  72 Au   78 B3g 134 Ag  123 B3u                
  9.302   9.315   9.447   9.540   9.577   9.607   9.715   9.740
135 Ag  119 B1g 129 B2u 120 B1g 136 Ag  124 B3u 130 B2u 125 B3u                
  9.757   9.868   9.870   9.870   9.919   9.927   9.930   9.953
137 Ag  138 Ag   73 B2g  79 B1u 131 B2u 126 B3u 121 B1g  79 B3g                
  9.956   9.996  10.062  10.067  10.067  10.119  10.123  10.157
 73 Au  122 B1g 127 B3u 139 Ag  132 B2u  80 B1u  74 B2g 123 B1g                
 10.178  10.182  10.247  10.271  10.306  10.349  10.357  10.374
128 B3u 133 B2u 134 B2u 140 Ag  124 B1g 135 B2u  74 Au   80 B3g                
 10.449  10.488  10.524  10.599  10.626  10.631  10.656  10.803
136 B2u 125 B1g 141 Ag  129 B3u 142 Ag  137 B2u 130 B3u 126 B1g                
 10.853  10.928  10.949  10.954  10.994  11.108  11.738  11.863
138 B2u 131 B3u 127 B1g 139 B2u 128 B1g 143 Ag  129 B1g 140 B2u                
 12.511  12.540  12.895  12.956  13.072  13.157  13.380  13.412
[...]
 29.483  29.648 147.536 147.741 147.934 147.966 147.979 148.217
133 B1g 145 B2u 149 Ag  136 B3u 146 B2u 134 B1g 150 Ag  147 B2u                
148.308 148.474 148.649 148.825
137 B3u 151 Ag  135 B1g 148 B2u                                                
 
 Beta MOs, Unrestricted
 -- Occupied --                  
-10.067 -10.067 -10.054 -10.054 -10.054 -10.054 -10.040 -10.040
  1 Ag    1 B2u   1 B3u   2 Ag    2 B2u   1 B1g   2 B1g   2 B3u                
-10.040 -10.040  -0.721  -0.666  -0.615  -0.587  -0.561  -0.465
  3 B2u   3 Ag    4 Ag    3 B3u   4 B2u   5 Ag    3 B1g   4 B3u                
 -0.455  -0.437  -0.356  -0.351  -0.335  -0.286  -0.281  -0.253
  5 B2u   6 Ag    5 B3u   4 B1g   7 Ag    6 B2u   8 Ag    5 B1g                
 -0.252  -0.241  -0.229  -0.207  -0.174  -0.168  -0.164  -0.116
  6 B3u   7 B2u   1 B1u   7 B3u   6 B1g   9 Ag    1 B2g   1 B3g                
 -0.084  -0.045
  2 B1u   1 Au                                                                 
 -- Virtual --                   
  0.126   0.134   0.134   0.141   0.150   0.154   0.154   0.173
 10 Ag    8 B3u   8 B2u   2 B2g   7 B1g   2 B3g  11 Ag    9 B2u                
  0.180   0.183   0.186   0.211   0.231   0.232   0.234   0.244
  9 B3u  12 Ag    3 B1u   8 B1g  10 B3u  10 B2u   3 B3g   4 B1u                
  0.253   0.257   0.258   0.275   0.277   0.289   0.295   0.301
  3 B2g  13 Ag    2 Au   11 B2u  14 Ag    9 B1g  15 Ag    3 Au                 
  0.302   0.303   0.304   0.312   0.318   0.321   0.321   0.321
  5 B1u  11 B3u  12 B2u  12 B3u   4 B3g  13 B3u  10 B1g  16 Ag                 
  0.323   0.328   0.333   0.339   0.348   0.351   0.360   0.365
 13 B2u   6 B1u  17 Ag    4 B2g  18 Ag    5 B2g  11 B1g   5 B3g                
  0.371   0.372   0.376   0.382   0.383   0.395   0.396   0.396
 12 B1g  14 B3u  14 B2u  19 Ag    4 Au   15 B2u  15 B3u   7 B1u                
  0.406   0.409   0.416   0.424   0.426   0.432   0.435   0.438
  6 B3g   8 B1u  16 B2u  20 Ag    5 Au   13 B1g  17 B2u  16 B3u                
  0.447   0.451   0.456   0.459   0.461   0.463   0.465   0.471
  7 B3g   6 B2g   9 B1u  21 Ag   18 B2u  17 B3u  14 B1g  22 Ag                 
  0.482   0.486   0.487   0.490   0.495   0.500   0.513   0.513
 18 B3u   7 B2g  19 B2u  23 Ag   15 B1g   8 B3g  20 B2u  19 B3u                
  0.516   0.533   0.534   0.542   0.545   0.551   0.554   0.560
 24 Ag    6 Au    8 B2g   7 Au    9 B3g  16 B1g  21 B2u  17 B1g                
  0.562   0.569   0.575   0.577   0.579   0.582   0.586   0.589
 10 B1u  20 B3u  18 B1g  11 B1u  22 B2u  25 Ag   21 B3u  26 Ag                 
  0.598   0.608   0.611   0.617   0.620   0.628   0.633   0.633
 22 B3u  27 Ag   10 B3g  28 Ag   23 B2u   9 B2g  11 B3g  12 B1u                
  0.638   0.642   0.651   0.655   0.655   0.675   0.680   0.682
 19 B1g  23 B3u  24 B2u   8 Au   29 Ag   10 B2g  12 B3g  20 B1g                
  0.684   0.684   0.688   0.698   0.699   0.699   0.700   0.702
 24 B3u  30 Ag   25 B2u  13 B1u  11 B2g  31 Ag   25 B3u  26 B2u                
  0.710   0.710   0.714   0.724   0.738   0.746   0.752   0.752
  9 Au   26 B3u  21 B1g  10 Au   27 B2u  14 B1u  32 Ag   28 B2u                
  0.752   0.762   0.764   0.776   0.778   0.782   0.789   0.806
 22 B1g  13 B3g  23 B1g  12 B2g  11 Au   27 B3u  29 B2u  33 Ag                 
  0.829   0.834   0.844   0.851   0.857   0.860   0.860   0.890
 24 B1g  28 B3u  34 Ag   30 B2u  25 B1g  15 B1u  31 B2u  13 B2g                
  0.893   0.895   0.896   0.904   0.905   0.915   0.918   0.922
 29 B3u  12 Au   35 Ag   16 B1u  32 B2u  36 Ag   26 B1g  14 B3g                
  0.924   0.936   0.937   0.945   0.946   0.959   0.976   0.986
 17 B1u  30 B3u  14 B2g  27 B1g  33 B2u  28 B1g  15 B2g  37 Ag                 
  0.993   1.009   1.013   1.015   1.026   1.026   1.027   1.028
 31 B3u  15 B3g  32 B3u  38 Ag   33 B3u  16 B3g  13 Au   29 B1g                
  1.028   1.052   1.054   1.060   1.077   1.083   1.088   1.088
 18 B1u  39 Ag   34 B2u  19 B1u  16 B2g  30 B1g  35 B2u  34 B3u                
  1.094   1.109   1.109   1.111   1.116   1.120   1.124   1.141
 14 Au   36 B2u  17 B3g  40 Ag   35 B3u  41 Ag   20 B1u  31 B1g                
  1.161   1.170   1.178   1.180   1.181   1.215   1.228   1.233
 42 Ag   37 B2u  15 Au   17 B2g  18 B3g  38 B2u  32 B1g  36 B3u                
  1.233   1.240   1.248   1.266   1.271   1.276   1.284   1.288
 18 B2g  16 Au   43 Ag   37 B3u  39 B2u  44 Ag   19 B2g  21 B1u                
  1.288   1.318   1.332   1.340   1.342   1.347   1.352   1.357
 19 B3g  33 B1g  22 B1u  45 Ag   17 Au   38 B3u  20 B3g  40 B2u                
  1.361   1.371   1.385   1.388   1.393   1.404   1.410   1.416
 18 Au   34 B1g  21 B3g  46 Ag   41 B2u  35 B1g  23 B1u  39 B3u                
  1.433   1.436   1.455   1.470   1.473   1.479   1.485   1.504
 47 Ag   42 B2u  36 B1g  40 B3u  20 B2g  43 B2u  41 B3u  48 Ag                 
  1.511   1.524   1.529   1.531   1.552   1.577   1.579   1.601
 19 Au   37 B1g  42 B3u  44 B2u  49 Ag   45 B2u  50 Ag   38 B1g                
  1.615   1.631   1.639   1.640   1.676   1.686   1.708   1.710
 51 Ag   43 B3u  39 B1g  22 B3g  44 B3u  40 B1g  23 B3g  46 B2u                
  1.731   1.741   1.743   1.765   1.793   1.824   1.834   1.839
 52 Ag   41 B1g  47 B2u  45 B3u  20 Au   42 B1g  46 B3u  24 B1u                
  1.846   1.862   1.890   1.898   1.900   1.911   1.922   1.937
 48 B2u  53 Ag   43 B1g  54 Ag   49 B2u  25 B1u  47 B3u  21 B2g                
  1.941   1.960   1.997   2.002   2.010   2.037   2.038   2.040
 50 B2u  22 B2g  44 B1g  26 B1u  55 Ag   48 B3u  56 Ag   24 B3g                
  2.043   2.048   2.076   2.086   2.093   2.093   2.115   2.117
 23 B2g  51 B2u  49 B3u  21 Au   45 B1g  25 B3g  50 B3u  52 B2u                
  2.120   2.128   2.131   2.143   2.147   2.158   2.179   2.190
 27 B1u  57 Ag   24 B2g  28 B1u  46 B1g  58 Ag   59 Ag   25 B2g                
  2.192   2.196   2.205   2.219   2.226   2.244   2.259   2.259
 22 Au   51 B3u  53 B2u  29 B1u  23 Au   52 B3u  30 B1u  26 B3g                
  2.269   2.274   2.275   2.287   2.293   2.301   2.306   2.313
 54 B2u  60 Ag   47 B1g  26 B2g  31 B1u  24 Au   48 B1g  27 B3g                
  2.319   2.320   2.344   2.346   2.348   2.350   2.352   2.402
 27 B2g  55 B2u  61 Ag   32 B1u  53 B3u  28 B3g  28 B2g  62 Ag                 
  2.413   2.414   2.421   2.425   2.454   2.457   2.472   2.484
 29 B3g  25 Au   54 B3u  56 B2u  63 Ag   29 B2g  49 B1g  55 B3u                
  2.484   2.486   2.490   2.492   2.493   2.504   2.522   2.528
 57 B2u  33 B1u  50 B1g  30 B3g  26 Au   58 B2u  30 B2g  27 Au                 
  2.531   2.538   2.557   2.568   2.569   2.601   2.612   2.623
 51 B1g  56 B3u  59 B2u  57 B3u  64 Ag   58 B3u  31 B3g  34 B1u                
  2.629   2.642   2.663   2.664   2.680   2.701   2.724   2.734
 65 Ag   52 B1g  28 Au   60 B2u  31 B2g  66 Ag   35 B1u  67 Ag                 
  2.738   2.755   2.756   2.760   2.762   2.762   2.780   2.782
 32 B3g  33 B3g  53 B1g  68 Ag   59 B3u  61 B2u  36 B1u  54 B1g                
  2.783   2.783   2.804   2.816   2.824   2.840   2.848   2.863
 32 B2g  69 Ag   29 Au   60 B3u  37 B1u  30 Au   62 B2u  33 B2g                
  2.868   2.869   2.874   2.876   2.889   2.909   2.910   2.916
 61 B3u  55 B1g  56 B1g  70 Ag   34 B3g  31 Au   34 B2g  38 B1u                
  2.918   2.918   2.919   2.926   2.929   2.941   2.952   2.958
 62 B3u  71 Ag   35 B3g  63 B2u  64 B2u  32 Au   57 B1g  65 B2u                
  2.959   2.976   2.980   2.981   2.983   2.987   3.018   3.021
 72 Ag   36 B3g  63 B3u  58 B1g  66 B2u  39 B1u  64 B3u  73 Ag                 
  3.034   3.037   3.042   3.043   3.048   3.055   3.068   3.085
 65 B3u  35 B2g  33 Au   59 B1g  67 B2u  37 B3g  74 Ag   68 B2u                
  3.093   3.132   3.154   3.161   3.165   3.172   3.182   3.206
 60 B1g  61 B1g  40 B1u  69 B2u  66 B3u  75 Ag   62 B1g  70 B2u                
  3.222   3.232   3.237   3.261   3.291   3.304   3.308   3.319
 36 B2g  76 Ag   67 B3u  38 B3g  71 B2u  77 Ag   63 B1g  68 B3u                
  3.347   3.384   3.385   3.417   3.442   3.462   3.467   3.477
 34 Au   72 B2u  35 Au   39 B3g  78 Ag   41 B1u  64 B1g  69 B3u                
  3.478   3.506   3.509   3.538   3.541   3.542   3.570   3.583
 79 Ag   37 B2g  70 B3u  42 B1u  73 B2u  65 B1g  80 Ag   66 B1g                
  3.589   3.600   3.632   3.634   3.644   3.657   3.661   3.666
 74 B2u  71 B3u  36 Au   67 B1g  40 B3g  81 Ag   43 B1u  72 B3u                
  3.670   3.694   3.696   3.713   3.730   3.745   3.790   3.792
 82 Ag   68 B1g  73 B3u  75 B2u  38 B2g  76 B2u  41 B3g  69 B1g                
  3.801   3.826   3.841   3.845   3.862   3.894   3.936   3.946
 83 Ag   39 B2g  74 B3u  42 B3g  37 Au   44 B1u  38 Au   84 Ag                 
  3.957   3.968   3.968   3.987   4.005   4.061   4.090   4.112
 70 B1g  77 B2u  40 B2g  43 B3g  75 B3u  85 Ag   45 B1u  76 B3u                
  4.174   4.217   4.231   4.264   4.292   4.303   4.311   4.313
 39 Au   78 B2u  71 B1g  79 B2u  77 B3u  80 B2u  44 B3g  86 Ag                 
  4.329   4.374   4.403   4.440   4.455   4.480   4.486   4.516
 72 B1g  87 Ag   73 B1g  81 B2u  78 B3u  40 Au   88 Ag   74 B1g                
  4.518   4.558   4.677   4.709   4.732   4.742   4.783   4.795
 45 B3g  82 B2u  83 B2u  79 B3u  75 B1g  89 Ag   80 B3u  84 B2u                
  4.849   4.873   4.885   4.962   4.996   5.004   5.036   5.085
 90 Ag   76 B1g  41 B2g  85 B2u  91 Ag   81 B3u  46 B1u  82 B3u                
  5.103   5.139   5.145   5.175   5.180   5.185   5.190   5.210
 42 B2g  77 B1g  47 B1u  92 Ag   78 B1g  83 B3u  86 B2u  43 B2g                
  5.256   5.294   5.303   5.308   5.314   5.339   5.341   5.343
 48 B1u  87 B2u  93 Ag   44 B2g  46 B3g  84 B3u  49 B1u  41 Au                 
  5.360   5.403   5.404   5.407   5.409   5.430   5.442   5.444
 94 Ag   47 B3g  50 B1u  42 Au   79 B1g  88 B2u  95 Ag   85 B3u                
  5.460   5.462   5.463   5.479   5.510   5.532   5.543   5.548
 80 B1g  43 Au   89 B2u  86 B3u  81 B1g  45 B2g  96 Ag   82 B1g                
  5.553   5.577   5.597   5.632   5.636   5.642   5.693   5.696
 46 B2g  51 B1u  90 B2u  48 B3g  52 B1u  97 Ag   87 B3u  49 B3g                
  5.705   5.712   5.714   5.739   5.740   5.761   5.770   5.779
 47 B2g  53 B1u  44 Au   91 B2u  48 B2g  50 B3g  45 Au   83 B1g                
  5.783   5.825   5.826   5.838   5.840   5.873   5.874   5.887
 98 Ag   99 Ag   49 B2g  88 B3u  92 B2u  84 B1g  54 B1u  51 B3g                
  5.891   5.933   5.938   5.987   6.010   6.026   6.037   6.052
 46 Au   89 B3u  55 B1u  47 Au   52 B3g  93 B2u  90 B3u  53 B3g                
  6.091   6.103   6.103   6.114   6.124   6.125   6.126   6.128
 85 B1g  91 B3u  50 B2g  48 Au   56 B1u  94 B2u  54 B3g  51 B2g                
  6.130   6.144   6.160   6.189   6.215   6.222   6.228   6.248
100 Ag   92 B3u 101 Ag   57 B1u  58 B1u 102 Ag   86 B1g  49 Au                 
  6.252   6.252   6.268   6.284   6.289   6.298   6.301   6.303
 52 B2g  95 B2u 103 Ag   93 B3u  53 B2g  55 B3g  96 B2u  87 B1g                
  6.304   6.322   6.325   6.327   6.331   6.331   6.350   6.369
104 Ag   50 Au   94 B3u  56 B3g  59 B1u  54 B2g  51 Au   97 B2u                
  6.388   6.402   6.416   6.420   6.437   6.441   6.453   6.458
105 Ag   57 B3g  95 B3u  88 B1g 106 Ag   60 B1u  89 B1g  96 B3u                
  6.462   6.475   6.492   6.494   6.496   6.515   6.516   6.520
 55 B2g  98 B2u  52 Au  107 Ag   61 B1u  99 B2u  97 B3u  90 B1g                
  6.527   6.549   6.562   6.562   6.563   6.573   6.577   6.589
100 B2u  91 B1g  98 B3u 101 B2u  58 B3g  56 B2g 108 Ag  109 Ag                 
  6.611   6.623   6.635   6.648   6.656   6.662   6.668   6.674
 53 Au   92 B1g  62 B1u  93 B1g  59 B3g  99 B3u 102 B2u  54 Au                 
  6.698   6.722   6.724   6.730   6.735   6.751   6.765   6.793
110 Ag  111 Ag   63 B1u  94 B1g 100 B3u  57 B2g 101 B3u 103 B2u                
  6.799   6.812   6.813   6.822   6.830   6.837   6.851   6.858
104 B2u  55 Au  112 Ag   60 B3g 105 B2u  58 B2g  95 B1g  64 B1u                
  6.887   6.895   6.911   6.919   6.923   6.923   6.930   6.939
102 B3u  96 B1g 113 Ag  106 B2u  97 B1g  61 B3g  56 Au  114 Ag                 
  6.941   6.963   6.965   7.000   7.007   7.017   7.034   7.041
 65 B1u  59 B2g  62 B3g 107 B2u  66 B1u 103 B3u  60 B2g 104 B3u                
  7.053   7.058   7.066   7.074   7.104   7.133   7.147   7.196
 57 Au  108 B2u  63 B3g  98 B1g  61 B2g 115 Ag   99 B1g  67 B1u                
  7.198   7.212   7.226   7.227   7.237   7.280   7.283   7.286
 58 Au  100 B1g 109 B2u  59 Au   64 B3g 105 B3u 116 Ag  101 B1g                
  7.293   7.338   7.349   7.350   7.363   7.409   7.452   7.480
 65 B3g  62 B2g  66 B3g  68 B1u 117 Ag   60 Au  110 B2u 111 B2u                
  7.502   7.521   7.538   7.552   7.579   7.584   7.605   7.611
106 B3u 102 B1g 107 B3u 118 Ag   69 B1u 112 B2u  61 Au  119 Ag                 
  7.633   7.670   7.676   7.683   7.686   7.711   7.718   7.719
108 B3u 103 B1g  63 B2g 109 B3u 113 B2u 104 B1g  70 B1u  64 B2g                
  7.733   7.744   7.756   7.758   7.766   7.809   7.845   7.848
120 Ag  110 B3u 114 B2u  67 B3g  62 Au  105 B1g 111 B3u 115 B2u                
  7.877   7.885   7.906   7.907   7.912   7.913   7.946   7.954
121 Ag   68 B3g  65 B2g 116 B2u  71 B1u 122 Ag  117 B2u 106 B1g                
  8.009   8.012   8.025   8.049   8.090   8.101   8.114   8.120
 63 Au  123 Ag  124 Ag   72 B1u 118 B2u 112 B3u 113 B3u 107 B1g                
  8.128   8.149   8.149   8.166   8.199   8.246   8.257   8.288
 69 B3g  64 Au   66 B2g 125 Ag  119 B2u 108 B1g 114 B3u  70 B3g                
  8.310   8.318   8.323   8.326   8.333   8.357   8.362   8.370
 67 B2g 115 B3u 109 B1g  73 B1u  65 Au  126 Ag  110 B1g  74 B1u                
  8.378   8.381   8.381   8.382   8.412   8.418   8.419   8.462
120 B2u 116 B3u 127 Ag   71 B3g 121 B2u  72 B3g  66 Au  111 B1g                
  8.472   8.500   8.501   8.503   8.505   8.511   8.516   8.541
128 Ag  122 B2u  67 Au   73 B3g  75 B1u  68 B2g 117 B3u 129 Ag                 
  8.556   8.582   8.598   8.599   8.619   8.627   8.631   8.655
 69 B2g 112 B1g 123 B2u 130 Ag   76 B1u 118 B3u  70 B2g 113 B1g                
  8.666   8.666   8.686   8.689   8.711   8.726   8.727   8.731
 74 B3g  68 Au  114 B1g  77 B1u 124 B2u  71 B2g 119 B3u 131 Ag                 
  8.758   8.760   8.772   8.776   8.795   8.845   8.850   8.914
125 B2u  69 Au   75 B3g 115 B1g 120 B3u  76 B3g 116 B1g  70 Au                 
  8.915   8.932   8.947   8.953   8.981   9.017   9.029   9.031
 72 B2g  78 B1u 121 B3u 132 Ag   77 B3g 126 B2u 117 B1g 133 Ag                 
  9.045   9.076   9.104   9.123   9.130   9.150   9.152   9.170
127 B2u 122 B3u 128 B2u  71 Au  118 B1g  72 Au   78 B3g 134 Ag                 
  9.188   9.301   9.316   9.446   9.540   9.578   9.607   9.715
123 B3u 135 Ag  119 B1g 129 B2u 120 B1g 136 Ag  124 B3u 130 B2u                
  9.740   9.757   9.869   9.872   9.872   9.919   9.928   9.930
125 B3u 137 Ag  138 Ag   73 B2g  79 B1u 131 B2u 126 B3u 121 B1g                
  9.957   9.960   9.997  10.063  10.067  10.067  10.124  10.127
 79 B3g  73 Au  122 B1g 127 B3u 139 Ag  132 B2u  80 B1u  74 B2g                
 10.157  10.179  10.182  10.248  10.271  10.306  10.349  10.360
123 B1g 128 B3u 133 B2u 134 B2u 140 Ag  124 B1g 135 B2u  74 Au                 
 10.377  10.448  10.489  10.525  10.599  10.628  10.631  10.658
 80 B3g 136 B2u 125 B1g 141 Ag  129 B3u 142 Ag  137 B2u 130 B3u                
 10.803  10.855  10.929  10.951  10.955  10.995  11.109  11.738
126 B1g 138 B2u 131 B3u 127 B1g 139 B2u 128 B1g 143 Ag  129 B1g                
 11.863  12.512  12.542  12.897  12.958  13.073  13.159  13.381
140 B2u 144 Ag  132 B3u 130 B1g 141 B2u 145 Ag  133 B3u 142 B2u                
 13.413  28.300  28.518  28.722  28.771  28.795  29.082  29.158
131 B1g 146 Ag  134 B3u 143 B2u 147 Ag  132 B1g 144 B2u 135 B3u                
 29.325  29.487  29.651 147.536 147.741 147.935 147.967 147.979
148 Ag  133 B1g 145 B2u 149 Ag  136 B3u 146 B2u 134 B1g 150 Ag                 
148.218 148.309 148.475 148.649 148.825
147 B2u 137 B3u 151 Ag  135 B1g 148 B2u                                        
 --------------------------------------------------------------
 
          Ground-State Mulliken Net Atomic Charges

     Atom                 Charge (a.u.)    Spin (a.u.)
  --------------------------------------------------------
      1 C                    -0.449319       0.071332
      2 C                    -0.449319       0.071332
      3 C                    -0.231709       0.214517
      4 C                     0.106154      -0.012784
      5 C                     0.106154      -0.012784
      6 C                    -0.231709       0.214517
      7 C                    -0.231709       0.214517
      8 C                    -0.449319       0.071332
      9 C                    -0.449319       0.071332
     10 C                    -0.231709       0.214517
     11 H                     0.200815      -0.010404
     12 H                     0.200815      -0.010404
     13 H                     0.177136      -0.019053
     14 H                     0.177136      -0.019053
     15 H                     0.177136      -0.019053
     16 H                     0.200815      -0.010404
     17 H                     0.200815      -0.010404
     18 H                     0.177136      -0.019053
  --------------------------------------------------------
  Sum of atomic charges =    -1.000000
  Sum of spin   charges =     1.000000

 -----------------------------------------------------------------
                    Cartesian Multipole Moments
 -----------------------------------------------------------------
    Charge (ESU x 10^10)
                -4.8032
    Dipole Moment (Debye)
         X       0.0000      Y      -0.0000      Z       0.0000
       Tot       0.0000
    Quadrupole Moments (Debye-Ang)
        XX     -81.1911     XY       0.0000     YY     -67.2692
        XZ       0.0000     YZ       0.0000     ZZ     -69.8638
    Octopole Moments (Debye-Ang^2)
       XXX       0.0000    XXY      -0.0000    XYY      -0.0000
       YYY      -0.0000    XXZ      -0.0000    XYZ      -0.0000
       YYZ       0.0000    XZZ       0.0000    YZZ      -0.0000
       ZZZ      -0.0000
    Hexadecapole Moments (Debye-Ang^3)
      XXXX   -1438.0829   XXXY      -0.0000   XXYY    -332.7051
      XYYY      -0.0000   YYYY    -591.4368   XXXZ       0.0000
      XXYZ       0.0000   XYYZ      -0.0000   YYYZ       0.0000
      XXZZ    -277.4341   XYZZ      -0.0000   YYZZ    -129.7128
      XZZZ       0.0000   YZZZ       0.0000   ZZZZ     -91.9837
 -----------------------------------------------------------------
Archival summary:
1\1\n0107.etna0\SP\ProcedureUnspecified\BasisUnspecified\108(1-,2)\jhansonm\WedAug718:41:362019WedAug718:41:362019\0\\#,ProcedureUnspecified,BasisUnspecified,\\-1,2\C\C,1,1.41925\H,2,1.09213,1,118.786\C,2,1.37487,1,120.872,3,180,0\H,4,1.09149,2,120.033,1,180,0\C,4,1.41464,2,120.265,1,-0,0\H,6,1.09149,4,119.702,2,-180,0\C,6,1.37487,4,120.265,2,0,0\H,8,1.09213,6,120.342,4,180,0\C,8,1.41925,6,120.872,4,-0,0\C,10,1.41925,8,122.274,6,-180,0\H,11,1.09213,10,118.786,8,-0,0\C,11,1.37487,10,120.872,8,180,0\H,13,1.09149,11,120.033,10,-180,0\C,13,1.41464,11,120.265,10,-0,0\H,15,1.09149,13,119.702,11,-180,0\C,15,1.37487,13,120.265,11,-0,0\H,17,1.09213,15,120.342,13,-180,0\\\@

 Total job time:  1813.16s(wall), 8571.23s(cpu) 
 Wed Aug  7 18:41:36 2019

        *************************************************************
        *                                                           *
        *  Thank you very much for using Q-Chem.  Have a nice day.  *
        *                                                           *
        *************************************************************


0 sent ACK to 0 
now end server 0 ... 
cleanup process ... done
